LAMMPS data file via write_data, version 7 Aug 2019, timestep = 65100

1934 atoms
6 atom types
868 bonds
1 bond types
434 angles
1 angle types

0.0000000000000000e+00 2.7059999999999999e+01 xlo xhi
0.0000000000000000e+00 2.9820000000000000e+01 ylo yhi
9.9000000000000004e+00 3.0100000000000001e+01 zlo zhi

Masses

1 15.9994
2 1.008
3 12.011
4 12.011
5 22.99
6 35.45

Atoms # full

2 2 3 -9.3080000000000003e-03 8.6999999999999994e-02 5.1000000000000001e-01 1.0000000000000000e+01 0 0 0
3 3 3 -9.3080000000000003e-03 8.6999999999999994e-02 1.9299999999999999e+00 1.0000000000000000e+01 0 0 0
4 4 3 -9.3080000000000003e-03 1.3169999999999999e+00 2.6400000000000001e+00 1.0000000000000000e+01 0 0 0
6 6 3 -9.3080000000000003e-03 2.5470000000000002e+00 5.1000000000000001e-01 1.0000000000000000e+01 0 0 0
7 7 3 -9.3080000000000003e-03 2.5470000000000002e+00 1.9299999999999999e+00 1.0000000000000000e+01 0 0 0
8 8 3 -9.3080000000000003e-03 3.7770000000000001e+00 2.6400000000000001e+00 1.0000000000000000e+01 0 0 0
10 10 3 -9.3080000000000003e-03 5.0060000000000002e+00 5.1000000000000001e-01 1.0000000000000000e+01 0 0 0
11 11 3 -9.3080000000000003e-03 5.0060000000000002e+00 1.9299999999999999e+00 1.0000000000000000e+01 0 0 0
12 12 3 -9.3080000000000003e-03 6.2359999999999998e+00 2.6400000000000001e+00 1.0000000000000000e+01 0 0 0
45 45 3 -9.3080000000000003e-03 1.3169999999999999e+00 4.0599999999999996e+00 1.0000000000000000e+01 0 0 0
46 46 3 -9.3080000000000003e-03 8.6999999999999994e-02 4.7699999999999996e+00 1.0000000000000000e+01 0 0 0
47 47 3 -9.3080000000000003e-03 8.6999999999999994e-02 6.1900000000000004e+00 1.0000000000000000e+01 0 0 0
48 48 3 -9.3080000000000003e-03 1.3169999999999999e+00 6.9000000000000004e+00 1.0000000000000000e+01 0 0 0
49 49 3 -9.3080000000000003e-03 3.7770000000000001e+00 4.0599999999999996e+00 1.0000000000000000e+01 0 0 0
50 50 3 -9.3080000000000003e-03 2.5470000000000002e+00 4.7699999999999996e+00 1.0000000000000000e+01 0 0 0
51 51 3 -9.3080000000000003e-03 2.5470000000000002e+00 6.1900000000000004e+00 1.0000000000000000e+01 0 0 0
52 52 3 -9.3080000000000003e-03 3.7770000000000001e+00 6.9000000000000004e+00 1.0000000000000000e+01 0 0 0
53 53 3 -9.3080000000000003e-03 6.2359999999999998e+00 4.0599999999999996e+00 1.0000000000000000e+01 0 0 0
54 54 3 -9.3080000000000003e-03 5.0060000000000002e+00 4.7699999999999996e+00 1.0000000000000000e+01 0 0 0
55 55 3 -9.3080000000000003e-03 5.0060000000000002e+00 6.1900000000000004e+00 1.0000000000000000e+01 0 0 0
56 56 3 -9.3080000000000003e-03 6.2359999999999998e+00 6.9000000000000004e+00 1.0000000000000000e+01 0 0 0
909 98 2 4.1699999999999998e-01 5.3646811241393086e+00 1.7166095914623829e+00 1.3885799851878678e+01 3 1 0
908 98 1 -8.3399999999999996e-01 5.9878881394110444e+00 2.2153477502197982e+00 1.4414103901249016e+01 3 1 0
910 98 2 4.1699999999999998e-01 6.2075501144931771e+00 2.9741133892944855e+00 1.3873497571684734e+01 3 1 0
1199 195 1 -8.3399999999999996e-01 4.2205985220733053e+00 6.0979711483905339e+00 1.3413895690073193e+01 3 2 0
863 83 1 -8.3399999999999996e-01 3.9202601154710379e+00 1.3225359832137360e+00 1.3228709417549467e+01 3 2 0
1200 195 2 4.1699999999999998e-01 4.5006808103483271e+00 6.6993008935418263e+00 1.2723831430832265e+01 3 2 0
1201 195 2 4.1699999999999998e-01 4.8052926467139168e+00 5.3449918459025758e+00 1.3327945936288950e+01 3 2 0
1913 433 1 -8.3399999999999996e-01 6.6631916017029518e+00 4.7526193008562521e+00 1.3158347859988821e+01 3 2 0
864 83 2 4.1699999999999998e-01 3.9716481712551537e+00 1.6937832613875503e+00 1.2347933162435369e+01 3 2 0
865 83 2 4.1699999999999998e-01 3.0934857056616853e+00 8.4025999292005094e-01 1.3238002980365287e+01 3 2 0
642 9 2 4.1699999999999998e-01 2.5006430149604819e+00 5.1899970134223663e+00 1.3248241625599421e+01 3 1 0
722 36 1 -8.3399999999999996e-01 4.0255077429453738e+00 1.9118370278222570e+00 1.6622463745612063e+01 3 2 0
723 36 2 4.1699999999999998e-01 4.5015158348661659e+00 2.1797507903909725e+00 1.5836416043165432e+01 3 2 0
945 110 2 4.1699999999999998e-01 1.3341371409852975e+01 3.1330047931833342e+00 2.6209460333610362e+01 3 2 0
1035 140 2 4.1699999999999998e-01 4.9822127291001672e-01 3.5578687852352719e+00 1.3819055675492660e+01 3 1 0
1098 161 2 4.1699999999999998e-01 5.7312242508669309e-01 1.0415719502686360e+00 1.3793432083620482e+01 3 2 0
641 9 1 -8.3399999999999996e-01 1.5841282757613597e+00 4.9421423609941151e+00 1.3126580073510564e+01 3 1 0
1576 320 2 4.1699999999999998e-01 4.0051459902311237e-01 5.5549397885424012e+00 1.4361670948938361e+01 3 2 0
1097 161 1 -8.3399999999999996e-01 9.5172908941814860e-01 1.6246052792833751e-01 1.3800673581492221e+01 3 2 0
643 9 2 4.1699999999999998e-01 1.3487701031085402e+00 5.3048225987048490e+00 1.2272588379770268e+01 3 1 0
1575 320 2 4.1699999999999998e-01 3.0442868871868922e-01 6.8136886226608757e+00 1.5197263036348515e+01 3 2 0
978 121 2 4.1699999999999998e-01 4.1316236502301246e-01 2.2107414826894498e+00 1.6319422267418133e+01 3 2 0
806 64 1 -8.3399999999999996e-01 1.7262547424444596e+00 7.6143802080029745e+00 1.5844453439062232e+01 3 1 0
1919 1 5 1.0000000000000000e+00 7.6510687845324297e+00 1.0682524651460665e+00 1.5597668675827657e+01 3 2 0
1914 433 2 4.1699999999999998e-01 7.0258923771206687e+00 5.5996087251829261e+00 1.2898946588282204e+01 3 2 0
1915 433 2 4.1699999999999998e-01 7.4251839372200417e+00 4.1782697232942212e+00 1.3233994241327458e+01 3 2 0
1211 199 1 -8.3399999999999996e-01 9.2079680633562777e+00 6.5848602479263374e-01 1.3647264023313857e+01 3 1 0
1212 199 2 4.1699999999999998e-01 1.0137604298425170e+01 5.2867615031551318e-01 1.3459757738851909e+01 3 1 0
728 38 1 -8.3399999999999996e-01 8.9934440138570295e+00 3.3936417515408372e+00 1.3118682882921378e+01 3 1 0
729 38 2 4.1699999999999998e-01 9.7914079125956590e+00 3.9219726881958610e+00 1.3137444840864392e+01 3 1 0
730 38 2 4.1699999999999998e-01 9.3051540115568638e+00 2.4890515214933417e+00 1.3090651717596222e+01 3 1 0
981 122 2 4.1699999999999998e-01 9.6308734275939578e+00 7.4212217425987266e+00 1.3128993555612199e+01 3 2 0
1467 284 2 4.1699999999999998e-01 1.1271769587782646e+01 6.7611196960646289e+00 1.4035795436830599e+01 3 2 0
1593 326 2 4.1699999999999998e-01 6.8904910933453758e+00 1.4442657478917289e+01 2.7574024781286386e+01 3 1 0
1862 416 1 -8.3399999999999996e-01 1.1945436787416556e+01 7.6092745522696137e-01 1.3505275709654466e+01 2 1 0
1468 284 2 4.1699999999999998e-01 1.1494491973923347e+01 5.2944072591640143e+00 1.3734058028620996e+01 3 2 0
1466 284 1 -8.3399999999999996e-01 1.0838600214730320e+01 5.9888277133153478e+00 1.3672255018272297e+01 3 2 0
1446 277 2 4.1699999999999998e-01 1.2587449140719130e+01 7.1284725243805918e+00 1.6625297500061109e+01 2 2 0
14 14 3 -9.3080000000000003e-03 7.4660000000000002e+00 5.1000000000000001e-01 1.0000000000000000e+01 0 0 0
15 15 3 -9.3080000000000003e-03 7.4660000000000002e+00 1.9299999999999999e+00 1.0000000000000000e+01 0 0 0
16 16 3 -9.3080000000000003e-03 8.6959999999999997e+00 2.6400000000000001e+00 1.0000000000000000e+01 0 0 0
18 18 3 -9.3080000000000003e-03 9.9250000000000007e+00 5.1000000000000001e-01 1.0000000000000000e+01 0 0 0
19 19 3 -9.3080000000000003e-03 9.9250000000000007e+00 1.9299999999999999e+00 1.0000000000000000e+01 0 0 0
20 20 3 -9.3080000000000003e-03 1.1154999999999999e+01 2.6400000000000001e+00 1.0000000000000000e+01 0 0 0
22 22 3 -9.3080000000000003e-03 1.2385000000000000e+01 5.1000000000000001e-01 1.0000000000000000e+01 0 0 0
23 23 3 -9.3080000000000003e-03 1.2385000000000000e+01 1.9299999999999999e+00 1.0000000000000000e+01 0 0 0
57 57 3 -9.3080000000000003e-03 8.6959999999999997e+00 4.0599999999999996e+00 1.0000000000000000e+01 0 0 0
58 58 3 -9.3080000000000003e-03 7.4660000000000002e+00 4.7699999999999996e+00 1.0000000000000000e+01 0 0 0
59 59 3 -9.3080000000000003e-03 7.4660000000000002e+00 6.1900000000000004e+00 1.0000000000000000e+01 0 0 0
60 60 3 -9.3080000000000003e-03 8.6959999999999997e+00 6.9000000000000004e+00 1.0000000000000000e+01 0 0 0
61 61 3 -9.3080000000000003e-03 1.1154999999999999e+01 4.0599999999999996e+00 1.0000000000000000e+01 0 0 0
62 62 3 -9.3080000000000003e-03 9.9250000000000007e+00 4.7699999999999996e+00 1.0000000000000000e+01 0 0 0
63 63 3 -9.3080000000000003e-03 9.9250000000000007e+00 6.1900000000000004e+00 1.0000000000000000e+01 0 0 0
64 64 3 -9.3080000000000003e-03 1.1154999999999999e+01 6.9000000000000004e+00 1.0000000000000000e+01 0 0 0
66 66 3 -9.3080000000000003e-03 1.2385000000000000e+01 4.7699999999999996e+00 1.0000000000000000e+01 0 0 0
67 67 3 -9.3080000000000003e-03 1.2385000000000000e+01 6.1900000000000004e+00 1.0000000000000000e+01 0 0 0
1176 187 2 4.1699999999999998e-01 1.2214216582329577e+01 2.8252040556059450e+00 1.3333941903447595e+01 3 2 0
1177 187 2 4.1699999999999998e-01 1.3136944190565494e+01 3.6674555917580527e+00 1.4188975265406365e+01 3 2 0
1175 187 1 -8.3399999999999996e-01 1.2268095378837010e+01 3.6665038184633638e+00 1.3787311266480101e+01 3 2 0
1746 377 2 4.1699999999999998e-01 1.1781592892441752e+01 1.5009106369595446e+00 1.5436446098869443e+01 3 1 0
713 33 1 -8.3399999999999996e-01 9.7470688429070620e+00 4.8935815424220603e+00 1.6222728643612580e+01 2 2 0
714 33 2 4.1699999999999998e-01 1.0425818732895770e+01 4.9138792336581298e+00 1.5548103743443241e+01 2 2 0
715 33 2 4.1699999999999998e-01 9.3764034385954034e+00 5.7760807837365968e+00 1.6216857286900741e+01 2 2 0
1745 377 1 -8.3399999999999996e-01 1.1740794346370793e+01 1.5754978647095172e+00 1.6389863345926539e+01 3 1 0
1445 277 1 -8.3399999999999996e-01 1.2794830273796471e+01 7.4927468488197482e+00 1.5764757455218948e+01 2 2 0
1747 377 2 4.1699999999999998e-01 1.2609532933716185e+01 1.8871831462669049e+00 1.6643593448069165e+01 3 1 0
415 107 4 9.3080000000000003e-03 9.9250000000000007e+00 1.0449999999999999e+01 3.0000000000000000e+01 0 0 0
1863 416 2 4.1699999999999998e-01 1.2549159449856679e+01 9.3594182840216344e-01 1.2783388388687097e+01 2 1 0
1044 143 2 4.1699999999999998e-01 6.0235497806457614e+00 1.0119385871340928e+01 1.2928520569527771e+01 3 1 0
1043 143 1 -8.3399999999999996e-01 6.5178633202763319e+00 9.7147340222603820e+00 1.3641362322962802e+01 3 1 0
1900 428 2 4.1699999999999998e-01 6.8810056397455410e+00 1.2232201509700088e+01 1.3860641921053002e+01 3 1 0
1045 143 2 4.1699999999999998e-01 5.8504676457260683e+00 9.4373599005340640e+00 1.4268960311891238e+01 3 1 0
925 103 2 4.1699999999999998e-01 3.7573806377088568e+00 8.1714895054240184e+00 1.4411780819743893e+01 3 2 0
89 89 3 -9.3080000000000003e-03 1.3169999999999999e+00 8.3200000000000003e+00 1.0000000000000000e+01 0 0 0
90 90 3 -9.3080000000000003e-03 8.6999999999999994e-02 9.0299999999999994e+00 1.0000000000000000e+01 0 0 0
91 91 3 -9.3080000000000003e-03 8.6999999999999994e-02 1.0449999999999999e+01 1.0000000000000000e+01 0 0 0
92 92 3 -9.3080000000000003e-03 1.3169999999999999e+00 1.1160000000000000e+01 1.0000000000000000e+01 0 0 0
93 93 3 -9.3080000000000003e-03 3.7770000000000001e+00 8.3200000000000003e+00 1.0000000000000000e+01 0 0 0
94 94 3 -9.3080000000000003e-03 2.5470000000000002e+00 9.0299999999999994e+00 1.0000000000000000e+01 0 0 0
95 95 3 -9.3080000000000003e-03 2.5470000000000002e+00 1.0449999999999999e+01 1.0000000000000000e+01 0 0 0
96 96 3 -9.3080000000000003e-03 3.7770000000000001e+00 1.1160000000000000e+01 1.0000000000000000e+01 0 0 0
97 97 3 -9.3080000000000003e-03 6.2359999999999998e+00 8.3200000000000003e+00 1.0000000000000000e+01 0 0 0
98 98 3 -9.3080000000000003e-03 5.0060000000000002e+00 9.0299999999999994e+00 1.0000000000000000e+01 0 0 0
99 99 3 -9.3080000000000003e-03 5.0060000000000002e+00 1.0449999999999999e+01 1.0000000000000000e+01 0 0 0
100 100 3 -9.3080000000000003e-03 6.2359999999999998e+00 1.1160000000000000e+01 1.0000000000000000e+01 0 0 0
133 133 3 -9.3080000000000003e-03 1.3169999999999999e+00 1.2580000000000000e+01 1.0000000000000000e+01 0 0 0
134 134 3 -9.3080000000000003e-03 8.6999999999999994e-02 1.3289999999999999e+01 1.0000000000000000e+01 0 0 0
135 135 3 -9.3080000000000003e-03 8.6999999999999994e-02 1.4710000000000001e+01 1.0000000000000000e+01 0 0 0
137 137 3 -9.3080000000000003e-03 3.7770000000000001e+00 1.2580000000000000e+01 1.0000000000000000e+01 0 0 0
138 138 3 -9.3080000000000003e-03 2.5470000000000002e+00 1.3289999999999999e+01 1.0000000000000000e+01 0 0 0
139 139 3 -9.3080000000000003e-03 2.5470000000000002e+00 1.4710000000000001e+01 1.0000000000000000e+01 0 0 0
141 141 3 -9.3080000000000003e-03 6.2359999999999998e+00 1.2580000000000000e+01 1.0000000000000000e+01 0 0 0
142 142 3 -9.3080000000000003e-03 5.0060000000000002e+00 1.3289999999999999e+01 1.0000000000000000e+01 0 0 0
143 143 3 -9.3080000000000003e-03 5.0060000000000002e+00 1.4710000000000001e+01 1.0000000000000000e+01 0 0 0
923 103 1 -8.3399999999999996e-01 3.8223314162245918e+00 9.0114459012053771e+00 1.3957372739613147e+01 3 2 0
1899 428 2 4.1699999999999998e-01 5.5268200077054850e+00 1.2782031123456546e+01 1.4255312018595079e+01 3 1 0
1898 428 1 -8.3399999999999996e-01 6.4350839331590892e+00 1.3043501162857689e+01 1.4103908986066726e+01 3 1 0
924 103 2 4.1699999999999998e-01 2.9300663728005647e+00 9.1948581479213960e+00 1.3663340456360814e+01 3 2 0
1677 354 2 4.1699999999999998e-01 3.0892846306160711e+00 1.2749159876722841e+01 1.5523316472547110e+01 3 1 0
1676 354 1 -8.3399999999999996e-01 3.9219375626965913e+00 1.2963134031558450e+01 1.5102440290911803e+01 3 1 0
1678 354 2 4.1699999999999998e-01 4.1551002908328956e+00 1.3822106517079348e+01 1.5454624675808429e+01 3 1 0
1538 308 1 -8.3399999999999996e-01 1.0078270851259161e+00 9.2101472841984737e+00 1.3269191201761506e+01 2 1 0
1182 189 2 4.1699999999999998e-01 3.2168332245057276e+00 1.3990266513545951e+01 1.3270396330831479e+01 3 1 0
1539 308 2 4.1699999999999998e-01 1.6503110238224922e-01 9.2859862812529368e+00 1.3716602588756844e+01 2 1 0
1625 337 1 -8.3399999999999996e-01 1.5962458714314318e+00 1.1958460996030761e+01 1.6086792996580840e+01 3 1 0
1627 337 2 4.1699999999999998e-01 1.3746663430661996e+00 1.1027260139902033e+01 1.6087177271741272e+01 3 1 0
1626 337 2 4.1699999999999998e-01 8.3172531923695525e-01 1.2386906748129752e+01 1.5701857180573528e+01 3 1 0
774 53 2 4.1699999999999998e-01 3.6786701877939003e+00 9.3200816990903679e+00 1.5997410327901688e+01 3 1 0
1368 251 2 4.1699999999999998e-01 3.7098471020849272e-01 1.1958889785952023e+01 1.3118382880448918e+01 3 1 0
1826 404 1 -8.3399999999999996e-01 7.9729376227850839e+00 1.4740189141140810e+01 2.3969783630282272e+01 3 1 0
811 65 2 4.1699999999999998e-01 5.1492825064999312e+00 1.4842434665083662e+01 1.8345272440677295e+01 3 1 0
1540 308 2 4.1699999999999998e-01 8.8737440794048528e-01 9.6870245514632582e+00 1.2448026591481423e+01 2 1 0
807 64 2 4.1699999999999998e-01 1.4051699420991954e+00 8.2957819444534824e+00 1.6435071091717138e+01 3 1 0
1639 341 2 4.1699999999999998e-01 1.2881979992463945e+01 3.9795508168484617e-01 2.2481589748423371e+01 3 2 0
1917 434 2 4.1699999999999998e-01 9.7210073546104923e+00 1.4575640187749316e+01 1.6682787173897015e+01 3 1 0
1427 271 1 -8.3399999999999996e-01 8.8565799255882389e+00 1.4183533009658175e+01 1.3277788377358023e+01 2 1 0
1916 434 1 -8.3399999999999996e-01 8.8703197039223696e+00 1.4460396980292808e+01 1.6259370601449660e+01 3 1 0
982 122 2 4.1699999999999998e-01 8.4253673605915083e+00 7.8120842954595924e+00 1.2300816668877985e+01 3 2 0
980 122 1 -8.3399999999999996e-01 8.7799195694028001e+00 7.8554154235131328e+00 1.3188874797086646e+01 3 2 0
1314 233 2 4.1699999999999998e-01 1.2752583214906030e+01 1.2644035270484720e+01 1.5068554380477002e+01 2 1 0
1921 3 5 1.0000000000000000e+00 8.4801622779447889e+00 9.3254546631332627e+00 1.4886823381399166e+01 3 1 0
1336 240 2 4.1699999999999998e-01 9.4721538685381805e+00 1.2512936980552944e+01 1.4795370304512739e+01 2 2 0
1334 240 1 -8.3399999999999996e-01 9.2030395487408754e+00 1.1636391462931799e+01 1.4520638986996195e+01 2 2 0
1552 312 2 4.1699999999999998e-01 1.1297585448409590e+01 1.0075499335181879e+01 1.5586901887305281e+01 2 1 0
1054 146 2 4.1699999999999998e-01 1.1664547575195582e+01 1.1414560683593361e+01 1.3210610099281986e+01 2 1 0
1335 240 2 4.1699999999999998e-01 9.9757759020086425e+00 1.1272505102158357e+01 1.4088554331955095e+01 2 2 0
1550 312 1 -8.3399999999999996e-01 1.0706640482199964e+01 9.3778914831571143e+00 1.5870379508754462e+01 2 1 0
1052 146 1 -8.3399999999999996e-01 1.1266148609949107e+01 1.0597954595345874e+01 1.3511715888785256e+01 2 1 0
1053 146 2 4.1699999999999998e-01 1.1896770080920579e+01 9.9197434229154595e+00 1.3269686238337373e+01 2 1 0
1551 312 2 4.1699999999999998e-01 1.1189020398582096e+01 8.5695138900804153e+00 1.5696978528120219e+01 2 1 0
1667 351 1 -8.3399999999999996e-01 1.2934271000630231e+01 8.6724099342210241e+00 1.2781014664027310e+01 3 1 0
101 101 3 -9.3080000000000003e-03 8.6959999999999997e+00 8.3200000000000003e+00 1.0000000000000000e+01 0 0 0
102 102 3 -9.3080000000000003e-03 7.4660000000000002e+00 9.0299999999999994e+00 1.0000000000000000e+01 0 0 0
103 103 3 -9.3080000000000003e-03 7.4660000000000002e+00 1.0449999999999999e+01 1.0000000000000000e+01 0 0 0
104 104 3 -9.3080000000000003e-03 8.6959999999999997e+00 1.1160000000000000e+01 1.0000000000000000e+01 0 0 0
105 105 3 -9.3080000000000003e-03 1.1154999999999999e+01 8.3200000000000003e+00 1.0000000000000000e+01 0 0 0
106 106 3 -9.3080000000000003e-03 9.9250000000000007e+00 9.0299999999999994e+00 1.0000000000000000e+01 0 0 0
107 107 3 -9.3080000000000003e-03 9.9250000000000007e+00 1.0449999999999999e+01 1.0000000000000000e+01 0 0 0
108 108 3 -9.3080000000000003e-03 1.1154999999999999e+01 1.1160000000000000e+01 1.0000000000000000e+01 0 0 0
110 110 3 -9.3080000000000003e-03 1.2385000000000000e+01 9.0299999999999994e+00 1.0000000000000000e+01 0 0 0
111 111 3 -9.3080000000000003e-03 1.2385000000000000e+01 1.0449999999999999e+01 1.0000000000000000e+01 0 0 0
145 145 3 -9.3080000000000003e-03 8.6959999999999997e+00 1.2580000000000000e+01 1.0000000000000000e+01 0 0 0
146 146 3 -9.3080000000000003e-03 7.4660000000000002e+00 1.3289999999999999e+01 1.0000000000000000e+01 0 0 0
147 147 3 -9.3080000000000003e-03 7.4660000000000002e+00 1.4710000000000001e+01 1.0000000000000000e+01 0 0 0
149 149 3 -9.3080000000000003e-03 1.1154999999999999e+01 1.2580000000000000e+01 1.0000000000000000e+01 0 0 0
150 150 3 -9.3080000000000003e-03 9.9250000000000007e+00 1.3289999999999999e+01 1.0000000000000000e+01 0 0 0
151 151 3 -9.3080000000000003e-03 9.9250000000000007e+00 1.4710000000000001e+01 1.0000000000000000e+01 0 0 0
154 154 3 -9.3080000000000003e-03 1.2385000000000000e+01 1.3289999999999999e+01 1.0000000000000000e+01 0 0 0
155 155 3 -9.3080000000000003e-03 1.2385000000000000e+01 1.4710000000000001e+01 1.0000000000000000e+01 0 0 0
418 110 4 9.3080000000000003e-03 1.2385000000000000e+01 9.0299999999999994e+00 3.0000000000000000e+01 0 0 0
1852 412 2 4.1699999999999998e-01 1.3177299099704804e+01 1.4906258275763969e+01 2.1934541283991539e+01 3 1 0
1429 271 2 4.1699999999999998e-01 8.2426690968258587e+00 1.3746226249118960e+01 1.3867795942305316e+01 2 1 0
1235 207 1 -8.3399999999999996e-01 1.1848734754514776e+01 1.4003203719970296e+01 1.4488812157309978e+01 3 1 0
1237 207 2 4.1699999999999998e-01 1.1049924095217152e+01 1.4273391034824543e+01 1.4035896199173065e+01 3 1 0
1428 271 2 4.1699999999999998e-01 8.3964752664743116e+00 1.4223573436441814e+01 1.2439377599889898e+01 2 1 0
1236 207 2 4.1699999999999998e-01 1.2234683596469800e+01 1.4820836205229456e+01 1.4803062481806485e+01 3 1 0
1587 324 2 4.1699999999999998e-01 1.1484975848735470e+00 1.1970014431130001e+00 2.0617776871407518e+01 4 2 0
977 121 1 -8.3399999999999996e-01 9.5728222598014423e-01 2.8858774502387856e+00 1.6724832651181298e+01 3 2 0
979 121 2 4.1699999999999998e-01 6.5958032436153102e-01 3.7044290516909650e+00 1.6327870641270447e+01 3 2 0
742 42 2 4.1699999999999998e-01 4.4571124738982743e-01 3.7139081645537204e+00 2.0880946295027947e+01 3 2 0
1300 228 2 4.1699999999999998e-01 5.1096072041847220e+00 2.3996474565819859e-01 1.6974137721486837e+01 3 2 0
1412 266 1 -8.3399999999999996e-01 1.5256613851074201e+00 2.5945881177079264e+00 1.9618128545216170e+01 3 2 0
876 87 2 4.1699999999999998e-01 5.1944542109145937e+00 9.7658808827042776e-01 2.1146097332837083e+01 3 2 0
828 71 2 4.1699999999999998e-01 1.9781196740419620e+00 6.7400302566700558e+00 1.9241021501318055e+01 3 2 0
1414 266 2 4.1699999999999998e-01 1.4017917525614163e+00 2.4448778469643617e+00 1.8680858487398751e+01 3 2 0
881 89 1 -8.3399999999999996e-01 6.0334178463518571e+00 4.2613410989387459e+00 1.7931483355458106e+01 3 1 0
882 89 2 4.1699999999999998e-01 5.5253544473571878e+00 4.3111714020085659e+00 1.7121779250284003e+01 3 1 0
1605 330 2 4.1699999999999998e-01 7.1963575685557863e+00 5.5417311973597378e+00 2.2831051507857776e+01 3 2 0
827 71 1 -8.3399999999999996e-01 2.3092916143197750e+00 6.3246099875804678e+00 1.8444790688312352e+01 3 2 0
829 71 2 4.1699999999999998e-01 2.7087483855166288e+00 5.5092393371551855e+00 1.8747836949889813e+01 3 2 0
1386 257 2 4.1699999999999998e-01 4.3676947196489353e+00 4.1038083142209123e+00 1.8937251759668047e+01 3 2 0
1387 257 2 4.1699999999999998e-01 3.6157575132172353e+00 4.1424952536286739e+00 2.0250640112284220e+01 3 2 0
1385 257 1 -8.3399999999999996e-01 3.5063917143626977e+00 4.2897359276793523e+00 1.9311176842496668e+01 3 2 0
1240 208 2 4.1699999999999998e-01 4.7186802975213213e+00 7.2382959718736855e+00 1.8461987456246064e+01 3 1 0
724 36 2 4.1699999999999998e-01 3.1858516049519947e+00 2.3673494590292137e+00 1.6561488471778347e+01 3 2 0
1818 401 2 4.1699999999999998e-01 4.5557886638838454e+00 4.3226854553696699e+00 2.2396843056441675e+01 3 1 0
1604 330 1 -8.3399999999999996e-01 6.3918666129951518e+00 5.0913976991510657e+00 2.2573706508054691e+01 3 2 0
1413 266 2 4.1699999999999998e-01 2.2335842286994469e+00 3.2369931501216738e+00 1.9667048368650644e+01 3 2 0
875 87 1 -8.3399999999999996e-01 5.9954334212484879e+00 1.4973417931667283e+00 2.1205086906317888e+01 3 2 0
883 89 2 4.1699999999999998e-01 6.0471550442974609e+00 5.1596193602132008e+00 1.8261847643127407e+01 3 1 0
1238 208 1 -8.3399999999999996e-01 5.5581905103710998e+00 7.0186033101548224e+00 1.8058019384881792e+01 3 1 0
1443 276 2 4.1699999999999998e-01 6.4253400612706439e+00 3.4906493468095849e+00 2.3709743338226730e+01 3 1 0
1817 401 1 -8.3399999999999996e-01 3.7086932921995337e+00 4.1991003545566983e+00 2.1968604447737764e+01 3 1 0
1819 401 2 4.1699999999999998e-01 3.0648348363163249e+00 4.3981853926754271e+00 2.2648342183644129e+01 3 1 0
1023 136 2 4.1699999999999998e-01 5.8150635396333883e-01 7.6217330013202567e+00 2.1443607958149691e+01 2 2 0
1024 136 2 4.1699999999999998e-01 7.1030199634730651e-01 6.1134061791781020e+00 2.1427569759295348e+01 2 2 0
877 87 2 4.1699999999999998e-01 5.9624721679964496e+00 1.8903647698305297e+00 2.2077255749596343e+01 3 2 0
808 64 2 4.1699999999999998e-01 1.9854299888938778e+00 6.8975478992920385e+00 1.6423428541946304e+01 3 1 0
1022 136 1 -8.3399999999999996e-01 9.3766216662279334e-01 6.8978754742174182e+00 2.0928422796020850e+01 2 2 0
1827 404 2 4.1699999999999998e-01 8.8538801311260151e+00 1.4582385937796978e+01 2.3630266657042075e+01 3 1 0
1761 382 2 4.1699999999999998e-01 2.6829872354089850e+00 3.9810380487176961e-01 1.8128168273272841e+01 3 2 0
1586 324 1 -8.3399999999999996e-01 1.0365510358959962e+00 2.9146519520125230e-01 2.0907095248299427e+01 4 2 0
1588 324 2 4.1699999999999998e-01 6.2992871466673439e-01 3.6394376351020957e-01 2.1770598233326233e+01 4 2 0
1163 183 1 -8.3399999999999996e-01 8.9695704383934718e+00 8.4849337737323740e+00 2.3534993737800185e+01 3 2 0
1895 427 1 -8.3399999999999996e-01 8.4288134035833497e+00 7.6424979078368587e+00 1.6856602202474264e+01 3 2 0
913 99 2 4.1699999999999998e-01 1.0029121794797774e+01 9.2754710313544264e-01 1.7073580628311454e+01 3 2 0
1091 159 1 -8.3399999999999996e-01 8.0332424184806239e+00 3.0630206343032409e+00 1.6708249502765803e+01 3 2 0
1093 159 2 4.1699999999999998e-01 8.7646407424558159e+00 3.6268183067668924e+00 1.6456415062561142e+01 3 2 0
1606 330 2 4.1699999999999998e-01 6.2475665380735466e+00 5.3579305610396899e+00 2.1665758309282953e+01 3 2 0
1897 427 2 4.1699999999999998e-01 7.8029450931538111e+00 7.0046542220260406e+00 1.7199642403152861e+01 3 2 0
1092 159 2 4.1699999999999998e-01 7.4792910648388151e+00 3.6189730192708427e+00 1.7256233758188138e+01 3 2 0
1398 261 2 4.1699999999999998e-01 1.1128832334039025e+01 2.6364762930449133e+00 1.7512938489008636e+01 2 2 0
1162 182 2 4.1699999999999998e-01 7.1425381550009996e+00 4.0567534658389723e+00 1.9499212536371854e+01 3 2 0
1160 182 1 -8.3399999999999996e-01 7.6910101159814843e+00 4.6075274254919805e+00 2.0057834605931713e+01 3 2 0
1161 182 2 4.1699999999999998e-01 8.3390939437956604e+00 4.0065336029631853e+00 2.0425294753024563e+01 3 2 0
1186 190 2 4.1699999999999998e-01 8.8896277150180492e+00 2.0699432928164638e+00 2.0495631571887365e+01 2 1 0
1184 190 1 -8.3399999999999996e-01 9.5534644003840938e+00 2.7567114717626438e+00 2.0558099877739501e+01 2 1 0
1500 295 2 4.1699999999999998e-01 1.1630930596493283e+01 7.0832472835923923e+00 1.8416660684892669e+01 2 2 0
1499 295 1 -8.3399999999999996e-01 1.2050011293628771e+01 6.3632145279324366e+00 1.7945326321914791e+01 2 2 0
1501 295 2 4.1699999999999998e-01 1.2369356095608152e+01 5.7795607249920948e+00 1.8633511633758374e+01 2 2 0
1399 261 2 4.1699999999999998e-01 1.0568925521702502e+01 3.9851767508899920e+00 1.7912197257563811e+01 2 2 0
1548 311 2 4.1699999999999998e-01 1.2673081035339809e+01 3.5986384184918645e+00 2.0017736030379030e+01 2 2 0
1547 311 1 -8.3399999999999996e-01 1.3131865866464295e+01 4.3833683912063419e+00 1.9717823607284547e+01 2 2 0
1185 190 2 4.1699999999999998e-01 9.9622366866921404e+00 2.7747872259191522e+00 1.9692761555765262e+01 2 1 0
1397 261 1 -8.3399999999999996e-01 1.0778022370915902e+01 3.1188899651315447e+00 1.8261565617123264e+01 2 2 0
1123 169 2 4.1699999999999998e-01 1.1630782331494233e+01 5.9497923778409794e+00 2.1480447780289829e+01 3 2 0
1121 169 1 -8.3399999999999996e-01 1.2005761357402514e+01 5.6924345758058212e+00 2.2322700529639050e+01 3 2 0
1492 292 2 4.1699999999999998e-01 1.0819147907817960e+01 4.1499102386517546e+00 2.3230522632427142e+01 3 2 0
1490 292 1 -8.3399999999999996e-01 1.0030702540372831e+01 3.6700843901899489e+00 2.3484204366677972e+01 3 2 0
1491 292 2 4.1699999999999998e-01 9.8705174540657694e+00 3.0696414487849299e+00 2.2756164818233994e+01 3 2 0
1410 265 2 4.1699999999999998e-01 8.6546335297283310e+00 1.2630116845572301e-01 1.9301303189665880e+01 3 2 0
1122 169 2 4.1699999999999998e-01 1.2951856377689106e+01 5.7040504927446305e+00 2.2177778614425836e+01 3 2 0
1668 351 2 4.1699999999999998e-01 1.3092553843601916e+01 8.1035660014590700e+00 1.2027625636983208e+01 3 1 0
850 78 2 4.1699999999999998e-01 1.1526438116369606e+01 1.1672086744295170e+01 2.4021949636395977e+01 3 2 0
911 99 1 -8.3399999999999996e-01 9.2921088276733670e+00 3.4350732418443297e-01 1.7252304483264965e+01 3 2 0
1681 355 2 4.1699999999999998e-01 1.4173205499899020e+00 1.0089381051867653e+01 1.7977667252998376e+01 3 1 0
1657 347 2 4.1699999999999998e-01 6.3834328645390670e+00 1.3499861425389083e+01 1.6874555495021230e+01 2 1 0
914 100 1 -8.3399999999999996e-01 2.1288395542775511e+00 1.3229162166713405e+01 1.8598502614605525e+01 3 1 0
1840 408 2 4.1699999999999998e-01 4.6981496879256577e+00 8.2680051366991574e+00 2.0310687542911250e+01 3 1 0
775 53 2 4.1699999999999998e-01 3.5046032960295666e+00 8.6213647263911142e+00 1.7329097513174037e+01 3 1 0
773 53 1 -8.3399999999999996e-01 4.1496233945672438e+00 9.0881956709540503e+00 1.6797825416598492e+01 3 1 0
1911 432 2 4.1699999999999998e-01 6.8613024020045481e+00 1.0986147140511189e+01 1.6707423330403170e+01 3 1 0
1839 408 2 4.1699999999999998e-01 3.3314419613255768e+00 7.9234202526669577e+00 2.0863197157359519e+01 3 1 0
1838 408 1 -8.3399999999999996e-01 3.7762363222925543e+00 8.2005039714425720e+00 2.0062188212444649e+01 3 1 0
916 100 2 4.1699999999999998e-01 2.1649023702118613e+00 1.4084888724698226e+01 1.8171110842214212e+01 3 1 0
1778 388 1 -8.3399999999999996e-01 2.5311076809311861e+00 1.0530729471617894e+01 1.9558735786220353e+01 3 2 0
1239 208 2 4.1699999999999998e-01 5.6251917591480902e+00 7.6089717818443523e+00 1.7307547399657466e+01 3 1 0
797 61 1 -8.3399999999999996e-01 3.5048029409616119e+00 1.4640056535833860e+01 2.2515982003547162e+01 3 1 0
1779 388 2 4.1699999999999998e-01 3.1108334991988276e+00 1.1226780294932174e+01 1.9249441186183102e+01 3 2 0
1195 193 2 4.1699999999999998e-01 1.0590126841904167e+01 1.3411911628570079e+01 2.3535144685230581e+01 3 2 0
810 65 2 4.1699999999999998e-01 4.1542041064638457e+00 1.4115057298686819e+01 1.9224269822899824e+01 3 1 0
1780 388 2 4.1699999999999998e-01 3.1136877367232687e+00 9.7899556404206010e+00 1.9726330638530904e+01 3 2 0
1259 215 1 -8.3399999999999996e-01 4.6469844441674318e-01 1.1004592672716424e+01 2.1095857914339419e+01 3 1 0
809 65 1 -8.3399999999999996e-01 4.9561073846687975e+00 1.4636512082282959e+01 1.9259882577011226e+01 3 1 0
1261 215 2 4.1699999999999998e-01 1.3732915157691183e-01 1.1805987446603334e+01 2.0687412553442591e+01 3 1 0
1495 293 2 4.1699999999999998e-01 1.9423607757546240e+00 1.4091413197050635e+01 2.3299830139267605e+01 3 1 0
799 61 2 4.1699999999999998e-01 4.1481898219986428e+00 1.4006056423341210e+01 2.2199233963446463e+01 3 1 0
1260 215 2 4.1699999999999998e-01 1.3313826407540672e+00 1.0875613499155117e+01 2.0710559659937218e+01 3 1 0
830 72 1 -8.3399999999999996e-01 5.8135599688861603e+00 1.2908501369409334e+01 2.1731753993203462e+01 2 1 0
832 72 2 4.1699999999999998e-01 6.1803448241157497e+00 1.2822354675862623e+01 2.0851822347494689e+01 2 1 0
831 72 2 4.1699999999999998e-01 6.4100645434785459e+00 1.3505838708408344e+01 2.2182977355695066e+01 2 1 0
972 119 2 4.1699999999999998e-01 5.6680702013960171e-01 1.1108708375659178e+01 2.3054968362511513e+01 3 1 0