LAMMPS data file via write_data, version 29 Sep 2021, timestep = 2126

2336 atoms
6 atom types
1216 bonds
1 bond types
608 angles
1 angle types

-1.5 50.06 xlo xhi
0 25.524 ylo yhi
0 24 zlo zhi

Atoms # full

176 0 3 -0.834 1.4238789751748733 3.5293121139865886 2.727970572760813 0 0 0
178 0 4 0.417 1.802221804727037 3.464678119878823 3.618979769402666 0 0 0
268 0 4 0.417 1.1352303531448482 1.2041200934684726 0.2694173412102284 0 0 0
71 0 3 -0.834 3.5619528286871054 0.654471529007857 2.7461796408847228 0 0 0
72 0 4 0.417 4.33105291400357 0.4471705398241328 3.2965292755720546 0 0 0
73 0 4 0.417 3.2189275961570303 1.4507777202313992 3.176995144972037 0 0 0
92 0 3 -0.834 3.6100866224250105 3.804160867171869 0.2653529199928972 0 0 0
229 0 4 0.417 -0.30897407674061905 1.0102911412584072 4.008515446275479 0 0 0
286 0 4 0.417 -1.330489246524727 3.697235116438408 5.353393066782568 0 0 0
177 0 4 0.417 0.6406881019061721 4.077474563869121 2.8944152399984473 0 0 0
227 0 3 -0.834 -1.0216106043707232 1.1899002543263504 3.3800961907294167 0 0 0
228 0 4 0.417 -0.8924947483835297 0.4936633208938942 2.721910304522083 0 0 0
226 0 4 0.417 -0.07558209523371644 5.950585411408885 0.07673372037850994 0 0 0
181 0 4 0.417 3.394412447960602 6.241541375066985 3.681226433030529 0 0 0
179 0 3 -0.834 3.1037942812515045 6.353834327437078 2.7633669722768524 0 0 0
266 0 3 -0.834 0.19609620536467426 0.9966547761835258 0.14816212807941767 0 0 0
89 0 3 -0.834 9.177236717906336 5.58977959582142 2.793996825040271 0 0 0
90 0 4 0.417 8.735443481062925 5.3337609059526665 3.6149419876197477 0 0 0
91 0 4 0.417 10.109837653034106 5.5650821506228825 3.048591945705852 0 0 0
95 0 3 -0.834 5.717651731783491 4.036326273666247 2.8165991374952353 0 0 0
96 0 4 0.417 6.521241229798776 3.6574929936657634 3.2009139952112777 0 0 0
97 0 4 0.417 5.031502199000068 3.681064626854588 3.3995958943590083 0 0 0
119 0 3 -0.834 7.447169232180482 0.873937349047566 2.7599074015745795 0 0 0
121 0 4 0.417 6.773372468204257 0.9585672770046656 3.4520057995223574 0 0 0
128 0 3 -0.834 10.556605431612732 2.578266351333824 2.7058699426920403 0 0 0
130 0 4 0.417 10.336205341404765 2.4981549529236564 3.643642365344709 0 0 0
1302 0 3 -0.834 8.467799578713715 3.8350918919316204 0.03449047476132271 0 0 1
120 0 4 0.417 8.257374614675 1.0666445425545403 3.25676622125573 0 0 0
70 0 4 0.417 6.4767614956042765 0.16096716662992042 0.06289672970342661 0 0 0
1283 0 4 0.417 9.386208461148929 0.4765600854480522 0.05327654250824153 0 0 1
1303 0 4 0.417 9.422170232016112 3.9874127841436895 0.0021659947617910357 0 0 1
1304 0 4 0.417 8.116937817784594 4.7357867257921455 0.011114252634064986 0 0 1
244 0 4 0.417 0.2120821941953115 8.171966929161243 3.8718995289874187 0 0 0
225 0 4 0.417 1.1670337960293276 6.832338508831869 0.13174855845834693 0 0 0
180 0 4 0.417 2.8912541220990917 7.299098170999591 2.742100767436786 0 0 0
64 0 6 1 2.327491618332217 8.610463223318321 0.8137273071541792 0 0 0
139 0 4 0.417 2.986099871431238 10.55681511613682 23.98895651398808 0 0 -1
99 0 4 0.417 4.090395603872917 9.275655155204628 3.421241038507246 0 0 0
98 0 3 -0.834 4.169962858186508 10.07640454137372 2.8843937612397252 0 0 0
822 0 4 0.417 1.5952949304470958 10.332663017931253 2.5827945673826096 0 0 0
820 0 3 -0.834 0.9679339532042015 11.044797947153139 2.77963272841581 0 0 0
821 0 4 0.417 1.364618384218267 11.438004084061774 3.5720570445206374 0 0 0
1277 0 4 0.417 4.237775528025473 7.817185620770023 0.09614140935772948 0 0 1
242 0 3 -0.834 0.020344401561121418 7.797725968186808 2.9988325735707804 0 0 0
243 0 4 0.417 -0.36164056707863323 6.938849287944897 3.2347393487474556 0 0 0
100 0 4 0.417 5.004243234400871 10.449757241381166 3.2018243372056556 0 0 0
84 0 4 0.417 7.493293559236601 10.998754831065813 3.2963326120816254 0 0 0
118 0 4 0.417 7.082168867885892 7.600449802777691 3.1901344982007362 0 0 0
117 0 4 0.417 6.156006824677634 6.410714101529642 3.2118764130572246 0 0 0
116 0 3 -0.834 6.189922077323118 7.334820974285159 2.9393301956432096 0 0 0
102 0 4 0.417 10.704420872308969 8.550788515879011 3.68024615261606 0 0 0
101 0 3 -0.834 10.859410205803695 8.390709764930133 2.7394825037810953 0 0 0
85 0 4 0.417 8.458641619275964 9.868013256042653 3.06138438894567 0 0 0
83 0 3 -0.834 7.596858285778211 10.194687831866167 2.770584550052742 0 0 0
717 0 4 0.417 10.559921231438238 11.77563118425737 3.7873036141583585 0 0 0
715 0 3 -0.834 10.766443869065109 11.836353950544723 2.846245089476418 0 0 0
65 0 3 -0.834 8.751268224268205 7.848768055919123 0.1968937404497275 0 0 0
67 0 4 0.417 8.60751905567323 8.776745471660607 0.08086827123639942 0 0 0
66 0 4 0.417 9.675359858236533 7.685176962265333 0.07620297057494278 0 0 0
852 0 4 0.417 1.126906826317496 13.963592094837702 0.2651673079852048 0 0 0
762 0 4 0.417 1.818452216177213 16.22734251000812 3.6028682305599133 0 0 0
760 0 3 -0.834 1.4086943873670446 16.30633661667349 2.7531482493804598 0 0 0
676 0 3 -0.834 3.6140177011517025 16.588987148418273 0.24079434272193012 0 0 0
657 0 4 0.417 3.221267294020335 14.200602924177351 3.181564496925614 0 0 0
656 0 4 0.417 4.3421958786365495 13.204856955728001 3.291124787040527 0 0 0
655 0 3 -0.834 3.5706698897639164 13.411015170987522 2.7444978910475917 0 0 0
813 0 4 0.417 -0.3161088037428585 13.76275192074551 4.010350138510095 0 0 0
870 0 4 0.417 -1.328298609796373 16.4617991457866 5.355487011457012 0 0 0
811 0 3 -0.834 -1.0227066234715319 13.955725488647847 3.3770142265244436 0 0 0
761 0 4 0.417 0.6386853205887443 16.84714585583834 2.8586587604846763 0 0 0
812 0 4 0.417 -0.8837411777617381 13.26769681444864 2.7102555282757823 0 0 0
810 0 4 0.417 -0.06307741450148219 18.739750430357425 0.09801563621223279 0 0 0
765 0 4 0.417 3.3889481252083256 19.003997183843207 3.6870334364600965 0 0 0
763 0 3 -0.834 3.104695429294123 19.117423455905698 2.76761643612979 0 0 0
850 0 3 -0.834 0.188925441418929 13.753617806054992 0.1386655614864126 0 0 0
704 0 4 0.417 8.25331882920574 13.823208369288952 3.26834747489162 0 0 0
714 0 4 0.417 10.335366408833705 15.261711904150392 3.6466973151280033 0 0 0
712 0 3 -0.834 10.554359082192098 15.345224180673624 2.7075585697055566 0 0 0
705 0 4 0.417 6.765468716778176 13.704184529140486 3.453228418603257 0 0 0
703 0 3 -0.834 7.444941624813456 13.646535936502076 2.767385275722221 0 0 0
681 0 4 0.417 5.03036649035707 16.44251282577305 3.3917930071065507 0 0 0
680 0 4 0.417 6.5219595403063515 16.403000137629753 3.2004881832038996 0 0 0
679 0 3 -0.834 5.725066100598591 16.797591899643322 2.82050527143436 0 0 0
675 0 4 0.417 10.107889752090879 18.303679332741773 3.0458222453278925 0 0 0
674 0 4 0.417 8.737868352340136 18.07984330612901 3.615131388264889 0 0 0
673 0 3 -0.834 9.172628355510447 18.35906921118511 2.7944751673743773 0 0 0
1886 0 3 -0.834 8.484111932747794 16.617193861411717 0.030090324273433482 0 0 1
1867 0 4 0.417 9.355445163145239 13.241767154961583 0.056219977261516674 0 0 1
654 0 4 0.417 6.461952374372794 12.919254407651598 0.06102671922121317 0 0 0
1887 0 4 0.417 9.423187394732539 16.727639988051717 0.004407540375690755 0 0 1
1888 0 4 0.417 8.09339102795099 17.478508886629708 0.02779731503406207 0 0 1
236 0 3 -0.834 0.9631096046370277 23.80850837463443 2.780855789512926 0 -1 0
238 0 4 0.417 1.583164212543427 23.094127758463085 2.57769881412867 0 -1 0
237 0 4 0.417 1.3621614632559658 24.202163194913997 3.5697251769077343 0 -1 0
828 0 4 0.417 0.19067027106745413 20.940840865210426 3.872995126930318 0 0 0
809 0 4 0.417 1.164750031558673 19.60275149568999 0.1342101048493758 0 0 0
764 0 4 0.417 2.8879447248230745 20.061436099839423 2.7460016463204067 0 0 0
648 0 6 1 2.3272767054377437 21.371062183625735 0.8157753273800968 0 0 0
723 0 4 0.417 2.9816763299051092 23.321098357318036 23.970471973420445 0 0 -1
683 0 4 0.417 4.071048124703379 22.05194672064086 3.4245001703738804 0 0 0
682 0 3 -0.834 4.171676415216392 22.842856631076764 2.8785906957789567 0 0 0
1861 0 4 0.417 4.232626513569978 20.59662797364989 0.0772446796084283 0 0 1
826 0 3 -0.834 0.019149360124446322 20.54931964501657 3.0037956334440685 0 0 0
827 0 4 0.417 -0.36430503141790127 19.693324872756794 3.2459397314119 0 0 0
684 0 4 0.417 5.006180808265705 23.20981846428765 3.1996563780899283 0 0 0
668 0 4 0.417 7.499976808881585 23.765995384833076 3.289275724098528 0 0 0
702 0 4 0.417 7.083096974753333 20.361332489826665 3.186421011805757 0 0 0
701 0 4 0.417 6.151602405216574 19.17534134688557 3.2174925564354573 0 0 0
700 0 3 -0.834 6.189597754029208 20.097367858108637 2.9401747974223356 0 0 0
686 0 4 0.417 10.69757565838389 21.30481147840465 3.683626118920276 0 0 0
685 0 3 -0.834 10.855748262661335 21.156740259974615 2.738034179121163 0 0 0
669 0 4 0.417 8.46377197052942 22.633810323998386 3.0546515933405947 0 0 0
667 0 3 -0.834 7.596761862750032 22.954805541785316 2.7733155059412655 0 0 0
131 0 3 -0.834 10.777777746946256 24.60856155192707 2.8708773584379417 0 -1 0
133 0 4 0.417 10.538172297153091 24.530069374034046 3.7827278341337713 0 -1 0
649 0 3 -0.834 8.740291752136509 20.594614057101076 0.2021871914211452 0 0 0
651 0 4 0.417 8.645827992082005 21.545581258495854 0.05957148679520789 0 0 0
650 0 4 0.417 9.689687024718728 20.461048071375362 0.08214335953369808 0 0 0
2 0 2 -0.001 0.7720000000000002 0.709 6 0 0 0
3 0 2 -0.001 0.7720000000000002 2.127 6 0 0 0
22 0 2 -0.001 0.7720000000000002 4.963 6 0 0 0
200 0 3 -0.834 2.2141294887429184 2.6904995476115094 9.293119768473046 0 0 0
201 0 4 0.417 2.7273031459083605 2.0595278790588782 8.76978383026386 0 0 0
202 0 4 0.417 2.277250244580939 3.4949224881200145 8.760333901022515 0 0 0
5 0 2 -0.001 4.4559999999999995 0 6 0 0 0
6 0 2 -0.001 3.2279999999999998 0.709 6 0 0 0
7 0 2 -0.001 3.2279999999999998 2.127 6 0 0 0
8 0 2 -0.001 4.4559999999999995 2.836 6 0 0 0
25 0 2 -0.001 4.4559999999999995 4.254 6 0 0 0
26 0 2 -0.001 3.2279999999999998 4.963 6 0 0 0
145 0 4 0.417 3.2654829776692043 5.641016713225126 8.744886518002254 0 0 0
21 0 2 -0.001 2 4.254 6 0 0 0
4 0 2 -0.001 2 2.836 6 0 0 0
1 0 2 -0.001 2 0 6 0 0 0
143 0 3 -0.834 3.986331370106263 5.915199845855787 9.3301908790691 0 0 0
1435 0 4 0.417 -0.16037207129280906 1.8388929027550365 11.84920084451171 0 0 0
1262 0 4 0.417 2.839741198998246 4.062878222409743 11.746788634156053 0 0 0
221 0 3 -0.834 -0.7823594197030902 4.597212497675933 8.889123188852183 0 0 0
222 0 4 0.417 -0.3773139371638052 4.04462028686207 9.542797638686546 0 0 0
223 0 4 0.417 -0.18906202650497672 4.646811557756112 8.15297323707932 0 0 0
144 0 4 0.417 4.686569220588731 6.127099180861786 8.695812350292435 0 0 0
1392 0 3 -0.834 0.8133572456158763 6.059980588114129 11.695835309818888 0 0 0
86 0 3 -0.834 4.331019135536359 0.0718336909626073 9.130438087804988 0 0 0
1261 0 4 0.417 4.295416272992452 4.393175310547597 11.915123200575941 0 0 0
77 0 3 -0.834 5.9961089237798895 3.0077128431352094 9.24931996746246 0 0 0
79 0 4 0.417 5.448135587231197 3.3451299462507693 8.55673891246986 0 0 0
9 0 2 -0.001 6.911999999999999 0 6 0 0 0
10 0 2 -0.001 5.683999999999999 0.709 6 0 0 0
11 0 2 -0.001 5.683999999999999 2.127 6 0 0 0
12 0 2 -0.001 6.911999999999999 2.836 6 0 0 0
13 0 2 -0.001 9.367999999999999 0 6 0 0 0
14 0 2 -0.001 8.14 0.709 6 0 0 0
15 0 2 -0.001 8.14 2.127 6 0 0 0
16 0 2 -0.001 9.367999999999999 2.836 6 0 0 0
18 0 2 -0.001 10.596 0.709 6 0 0 0
19 0 2 -0.001 10.596 2.127 6 0 0 0
29 0 2 -0.001 6.911999999999999 4.254 6 0 0 0
30 0 2 -0.001 5.683999999999999 4.963 6 0 0 0
33 0 2 -0.001 9.367999999999999 4.254 6 0 0 0
34 0 2 -0.001 8.14 4.963 6 0 0 0
38 0 2 -0.001 10.596 4.963 6 0 0 0
78 0 4 0.417 6.850129859442765 2.8339774422685915 8.882518977362329 0 0 0
87 0 4 0.417 5.147437183355944 0.4384752990248875 8.774103639947086 0 0 0
111 0 4 0.417 7.9657009247547235 5.5188224947687194 8.890045344983946 0 0 0
146 0 3 -0.834 9.700021155631541 2.5351239349731984 9.2595533608058 0 0 0
147 0 4 0.417 9.522675882676065 2.483161846759766 8.30849076644751 0 0 0
110 0 3 -0.834 7.279658148539575 6.093585304296578 9.258045795290682 0 0 0
104 0 3 -0.834 10.75414143572063 6.051829968451989 9.285941659973895 0 0 0
148 0 4 0.417 10.644148078306099 2.7534309186764383 9.270065188459899 0 0 0
105 0 4 0.417 10.718569396075655 5.610692675904214 8.426184713860533 0 0 0
711 0 4 0.417 8.281394142326368 0.059584395068118065 8.646818305648571 0 1 0
1237 0 4 0.417 6.502365999870277 1.6525039029217525 11.990224522929383 0 0 0
1236 0 3 -0.834 5.884427141923354 0.912540647823619 11.958427991234611 0 0 0
219 0 4 0.417 1.07490627359256 7.699723412726982 9.032395521120902 0 0 0
258 0 4 0.417 -1.4544827881825022 7.224758838180927 6.45940608660807 0 0 0
254 0 3 -0.834 -0.46975890265285597 9.62711535111052 11.62004601668464 0 0 0
220 0 4 0.417 2.0115046730757173 8.76462447070923 8.539861359762451 0 0 0
218 0 3 -0.834 1.7360336495384388 8.32837423543496 9.360453090782336 0 0 0
151 0 4 0.417 0.8366571882144357 12.749452966189988 8.892116198841599 0 0 0
150 0 4 0.417 1.562730060000361 11.456351208788568 8.532682775410198 0 0 0
149 0 3 -0.834 1.1382044311385466 11.921604126896355 9.240096408927712 0 0 0
43 0 2 -0.001 0.7720000000000002 10.635 6 0 0 0
42 0 2 -0.001 0.7720000000000002 9.217 6 0 0 0
23 0 2 -0.001 0.7720000000000002 6.381 6 0 0 0
44 0 2 -0.001 2 11.344 6 0 0 0
41 0 2 -0.001 2 8.508 6 0 0 0
24 0 2 -0.001 2 7.09 6 0 0 0
48 0 2 -0.001 4.4559999999999995 11.344 6 0 0 0
47 0 2 -0.001 3.2279999999999998 10.635 6 0 0 0
46 0 2 -0.001 3.2279999999999998 9.217 6 0 0 0
45 0 2 -0.001 4.4559999999999995 8.508 6 0 0 0
28 0 2 -0.001 4.4559999999999995 7.09 6 0 0 0
27 0 2 -0.001 3.2279999999999998 6.381 6 0 0 0
142 0 4 0.417 4.568512887183263 9.408308547318896 8.40603520799247 0 0 0
672 0 4 0.417 4.240834329955374 11.999235698163517 8.650517669020735 0 0 0
1305 0 3 -0.834 3.2877298605878305 11.481643500131959 11.984353874951486 0 0 0
217 0 4 0.417 -1.1213444581748664 10.26904994813392 7.553533089960841 0 0 0
255 0 4 0.417 0.4765887140578241 9.530506848045993 11.78875223100418 0 0 0
256 0 4 0.417 -0.6377466978008998 10.535567193059569 11.902917713627229 0 0 0
1306 0 4 0.417 4.245676279600945 11.385127166170776 11.89496691778514 0 0 0
124 0 4 0.417 8.631041611025726 9.157707511672811 8.487638878984045 0 0 0
108 0 4 0.417 5.501264201934469 7.059173741946346 11.776438736413951 0 0 0
141 0 4 0.417 6.016470127528174 9.288185939322732 8.805498427926363 0 0 0
140 0 3 -0.834 5.147722519123449 9.491028060956701 9.173123338742599 0 0 0
126 0 4 0.417 7.624490686539843 11.47029455323173 8.719164884576294 0 0 0
125 0 3 -0.834 7.620592150732718 12.33207712072467 9.160219585605343 0 0 0
123 0 4 0.417 10.089285780571966 9.012582435858405 8.825669770887826 0 0 0
122 0 3 -0.834 9.232326314908228 9.172120102773418 9.245011658660106 0 0 0
112 0 4 0.417 7.267310092521816 6.823211215096377 8.622749573072348 0 0 0
59 0 2 -0.001 10.596 10.635 6 0 0 0
58 0 2 -0.001 10.596 9.217 6 0 0 0
56 0 2 -0.001 9.367999999999999 11.344 6 0 0 0
55 0 2 -0.001 8.14 10.635 6 0 0 0
54 0 2 -0.001 8.14 9.217 6 0 0 0
53 0 2 -0.001 9.367999999999999 8.508 6 0 0 0
52 0 2 -0.001 6.911999999999999 11.344 6 0 0 0
51 0 2 -0.001 5.683999999999999 10.635 6 0 0 0
50 0 2 -0.001 5.683999999999999 9.217 6 0 0 0
49 0 2 -0.001 6.911999999999999 8.508 6 0 0 0
39 0 2 -0.001 10.596 6.381 6 0 0 0
36 0 2 -0.001 9.367999999999999 7.09 6 0 0 0
35 0 2 -0.001 8.14 6.381 6 0 0 0
32 0 2 -0.001 6.911999999999999 7.09 6 0 0 0
31 0 2 -0.001 5.683999999999999 6.381 6 0 0 0
698 0 4 0.417 10.352584991953197 12.086637066577895 11.98661722834913 0 0 0
697 0 3 -0.834 9.402660913669301 12.272636965809337 11.972487968314956 0 0 0
75 0 4 0.417 11.037805176379635 12.110277046616359 8.369898062738518 0 0 0
74 0 3 -0.834 11.283018019847667 11.866824415411436 9.275142218501415 0 0 0
107 0 3 -0.834 5.168223621336636 7.924889500030688 11.966748104017046 0 0 0
670 0 3 -0.834 4.32619762475858 12.831434128108446 9.129684527801277 0 0 0
786 0 4 0.417 2.2874823250588148 16.25676635266161 8.762657228802116 0 0 0
785 0 4 0.417 2.7255275580346083 14.820587928404631 8.763658121170161 0 0 0
784 0 3 -0.834 2.214865980704904 15.450242989167526 9.29494029219864 0 0 0
606 0 2 -0.001 0.7720000000000002 17.725 6 0 0 0
587 0 2 -0.001 0.7720000000000002 14.889 6 0 0 0
586 0 2 -0.001 0.7720000000000002 13.471 6 0 0 0
605 0 2 -0.001 2 17.016 6 0 0 0
588 0 2 -0.001 2 15.598 6 0 0 0
585 0 2 -0.001 2 12.762 6 0 0 0
729 0 4 0.417 3.272479596546186 18.403747499216593 8.734802280449356 0 0 0
610 0 2 -0.001 3.2279999999999998 17.725 6 0 0 0
609 0 2 -0.001 4.4559999999999995 17.016 6 0 0 0
592 0 2 -0.001 4.4559999999999995 15.598 6 0 0 0
591 0 2 -0.001 3.2279999999999998 14.889 6 0 0 0
590 0 2 -0.001 3.2279999999999998 13.471 6 0 0 0
589 0 2 -0.001 4.4559999999999995 12.762 6 0 0 0
727 0 3 -0.834 3.986338887388973 18.68502822344975 9.328173804349394 0 0 0
805 0 3 -0.834 -0.7929493035263436 17.33638727568138 8.869406237867306 0 0 0
2019 0 4 0.417 -0.17367467053721927 14.595881270583657 11.861721535451494 0 0 0
1846 0 4 0.417 2.843033417528507 16.825456189835464 11.750671579868474 0 0 0
806 0 4 0.417 -0.37935885556258875 16.830861743101007 9.55432697818236 0 0 0
807 0 4 0.417 -0.1818083633370576 17.39480727508797 8.14933532838978 0 0 0
728 0 4 0.417 4.697863846683679 18.870085364999028 8.695246866568716 0 0 0
1976 0 3 -0.834 0.8020021794608255 18.81505455691853 11.692619093279454 0 0 0
1845 0 4 0.417 4.295491236012333 17.162669845293465 11.919310845161446 0 0 0
127 0 4 0.417 8.278543330611873 12.821299035410037 8.645353652347314 0 0 0
663 0 4 0.417 5.443361030325554 16.11250727078328 8.56826492519694 0 0 0
661 0 3 -0.834 5.991820830218562 15.765584276913572 9.258465268687385 0 0 0
731 0 4 0.417 9.522763160103516 15.230275571982533 8.309224796876348 0 0 0
730 0 3 -0.834 9.700160133738178 15.308149996737535 9.259161702913566 0 0 0
695 0 4 0.417 7.978405230357177 18.29031685169528 8.890466129751353 0 0 0
671 0 4 0.417 5.141008748334992 13.202541707457463 8.771754863308221 0 0 0
662 0 4 0.417 6.846677605978332 15.603383163134819 8.883312487694663 0 0 0
622 0 2 -0.001 10.596 17.725 6 0 0 0
618 0 2 -0.001 8.14 17.725 6 0 0 0
617 0 2 -0.001 9.367999999999999 17.016 6 0 0 0
614 0 2 -0.001 5.683999999999999 17.725 6 0 0 0
613 0 2 -0.001 6.911999999999999 17.016 6 0 0 0
603 0 2 -0.001 10.596 14.889 6 0 0 0
602 0 2 -0.001 10.596 13.471 6 0 0 0
600 0 2 -0.001 9.367999999999999 15.598 6 0 0 0
599 0 2 -0.001 8.14 14.889 6 0 0 0
598 0 2 -0.001 8.14 13.471 6 0 0 0
597 0 2 -0.001 9.367999999999999 12.762 6 0 0 0
596 0 2 -0.001 6.911999999999999 15.598 6 0 0 0
595 0 2 -0.001 5.683999999999999 14.889 6 0 0 0
594 0 2 -0.001 5.683999999999999 13.471 6 0 0 0
593 0 2 -0.001 6.911999999999999 12.762 6 0 0 0
694 0 3 -0.834 7.284159156428367 18.855706116453614 9.258778890042084 0 0 0
688 0 3 -0.834 10.760216161087728 18.81966998398056 9.289064718025266 0 0 0
732 0 4 0.417 10.651230739827158 15.4974928246274 9.262015891313627 0 0 0
689 0 4 0.417 10.723008669503711 18.402312725369818 8.414744009352125 0 0 0
1821 0 4 0.417 6.508750463268494 14.42042769496501 11.990224630838116 0 0 0
1820 0 3 -0.834 5.886963130401683 13.679577844217263 11.963521588785387 0 0 0
88 0 4 0.417 4.239895342033695 24.763272042182987 8.654884169955153 0 -1 0
803 0 4 0.417 1.0641681924588957 20.4675079582889 9.02856901297577 0 0 0
842 0 4 0.417 -1.4581892074641247 19.989048743871564 6.459566006979537 0 0 0
838 0 3 -0.834 -0.46346931600881996 22.393969924066692 11.623823588753732 0 0 0
804 0 4 0.417 2.0174571967736235 21.512790217573247 8.528850539373723 0 0 0
802 0 3 -0.834 1.7301130378802667 21.09304010081952 9.354705608847196 0 0 0
735 0 4 0.417 0.8394517368826702 25.506113839968783 8.867015341496128 0 0 0
734 0 4 0.417 1.5521893492455439 24.231648332564735 8.525192366628437 0 0 0
733 0 3 -0.834 1.1292433912636135 24.675721557612516 9.277125029485854 0 0 0
627 0 2 -0.001 0.7720000000000002 23.397 6 0 0 0
626 0 2 -0.001 0.7720000000000002 21.979 6 0 0 0
607 0 2 -0.001 0.7720000000000002 19.143 6 0 0 0
628 0 2 -0.001 2 24.106 6 0 0 0
625 0 2 -0.001 2 21.27 6 0 0 0
608 0 2 -0.001 2 19.852 6 0 0 0
632 0 2 -0.001 4.4559999999999995 24.106 6 0 0 0
631 0 2 -0.001 3.2279999999999998 23.397 6 0 0 0
630 0 2 -0.001 3.2279999999999998 21.979 6 0 0 0
629 0 2 -0.001 4.4559999999999995 21.27 6 0 0 0
612 0 2 -0.001 4.4559999999999995 19.852 6 0 0 0
611 0 2 -0.001 3.2279999999999998 19.143 6 0 0 0
726 0 4 0.417 4.571533923389219 22.17349436236049 8.427640228171855 0 0 0
1889 0 3 -0.834 3.2821246450127055 24.2455025142492 11.986883609337722 0 0 0
801 0 4 0.417 -1.1032581061606115 23.025811536941205 7.559914114243827 0 0 0
839 0 4 0.417 0.48216990024816203 22.29596348756976 11.78307108278738 0 0 0
840 0 4 0.417 -0.6337035277175005 23.303229031326815 11.89515495718758 0 0 0
1890 0 4 0.417 4.240192321538307 24.137309064213692 11.896407797077732 0 0 0
113 0 3 -0.834 9.426557774666547 25.052144535154014 11.980067386696753 0 -1 0
114 0 4 0.417 10.34701530559885 24.837116484444937 11.981350495201461 0 -1 0
708 0 4 0.417 8.624842629056685 21.913701331898203 8.502042013147978 0 0 0
692 0 4 0.417 5.503718920510535 19.82314248076395 11.769521827828415 0 0 0
725 0 4 0.417 6.017752458783664 22.05204787209464 8.82327106133828 0 0 0
724 0 3 -0.834 5.1506073287184355 22.26082160487309 9.197066022445767 0 0 0
710 0 4 0.417 7.629910902402594 24.230226615399783 8.735319453721223 0 0 0
709 0 3 -0.834 7.622820291173961 25.09785107238133 9.161555081620278 0 0 0
707 0 4 0.417 10.089383617738964 21.788033145769248 8.815104761637853 0 0 0
706 0 3 -0.834 9.238109620414281 21.93978444361526 9.250468584952134 0 0 0
696 0 4 0.417 7.269244047808673 19.589023215519926 8.62712158931948 0 0 0
643 0 2 -0.001 10.596 23.397 6 0 0 0
642 0 2 -0.001 10.596 21.979 6 0 0 0
640 0 2 -0.001 9.367999999999999 24.106 6 0 0 0
639 0 2 -0.001 8.14 23.397 6 0 0 0
638 0 2 -0.001 8.14 21.979 6 0 0 0
637 0 2 -0.001 9.367999999999999 21.27 6 0 0 0
636 0 2 -0.001 6.911999999999999 24.106 6 0 0 0
635 0 2 -0.001 5.683999999999999 23.397 6 0 0 0
634 0 2 -0.001 5.683999999999999 21.979 6 0 0 0
633 0 2 -0.001 6.911999999999999 21.27 6 0 0 0
623 0 2 -0.001 10.596 19.143 6 0 0 0
620 0 2 -0.001 9.367999999999999 19.852 6 0 0 0
619 0 2 -0.001 8.14 19.143 6 0 0 0
616 0 2 -0.001 6.911999999999999 19.852 6 0 0 0
615 0 2 -0.001 5.683999999999999 19.143 6 0 0 0
659 0 4 0.417 11.034763401848894 24.877047511026213 8.388306241626383 0 0 0
658 0 3 -0.834 11.289189148746782 24.62069380384724 9.284586681802914 0 0 0
691 0 3 -0.834 5.185271171001497 20.71291376703597 11.971532080595338 0 0 0
1434 0 3 -0.834 0.1970415315901963 0.9867203693450503 12.140042576723085 0 0 0
1397 0 4 0.417 -0.3131532851964272 1.010834896879125 16.012270853125973 0 0 0
1395 0 3 -0.834 -1.0211000136262955 1.1921533345326953 15.37765970139114 0 0 0
1344 0 3 -0.834 1.4232224918764795 3.5266767476857006 14.725778748773035 0 0 0
1346 0 4 0.417 1.8155648794561636 3.484943515134463 15.611109429378985 0 0 0
1436 0 4 0.417 1.1357065910278488 1.1967589548403677 12.25569096482709 0 0 0
1396 0 4 0.417 -0.8734294670783402 0.5050698547891396 14.712435324965403 0 0 0
1260 0 3 -0.834 3.6135086529192844 3.802619751258488 12.268340923955623 0 0 0
1241 0 4 0.417 3.2186077224150695 1.4479110367356505 15.177283480371234 0 0 0
1240 0 4 0.417 4.332006073758659 0.4392901367910619 15.29152618801886 0 0 0
1239 0 3 -0.834 3.5629646584615666 0.6542976642923868 14.74970744876638 0 0 0
1454 0 4 0.417 -1.3260522066275808 3.7038664548692064 17.34680974755779 0 0 0
1345 0 4 0.417 0.6551026140481531 4.097212518308195 14.881718168248952 0 0 0
1394 0 4 0.417 -0.06383651061972702 5.975112090115577 12.098925726592096 0 0 0
1349 0 4 0.417 3.3714731252972845 6.214886743684154 15.687397769765418 0 0 0
1347 0 3 -0.834 3.1117826898320655 6.353149012497337 14.765520704185802 0 0 0
135 0 4 0.417 9.436230860755698 3.951828220164242 12.02253100662165 0 0 0
136 0 4 0.417 8.117894846453408 4.722534767669007 12.009618985845217 0 0 0
115 0 4 0.417 9.348497430044688 0.4676971716295315 12.046658176931384 0 0 0
1238 0 4 0.417 6.461815481889439 0.14764338298153262 12.067266027422352 0 0 0
134 0 3 -0.834 8.495141299340288 3.855379363057509 12.035645604736434 0 0 0
1298 0 4 0.417 10.309907155537976 2.485551603417381 15.640681358379222 0 0 0
1296 0 3 -0.834 10.560449881923955 2.5731851236283374 14.731540959503356 0 0 0
1289 0 4 0.417 6.775743620906471 0.9341040482764233 15.46483053090901 0 0 0
1287 0 3 -0.834 7.441059198671891 0.8829502545761173 14.763103302090904 0 0 0
1265 0 4 0.417 5.029055830345383 3.6813971644 15.39182884280045 0 0 0
1264 0 4 0.417 6.518086926654711 3.6375878265600177 15.20389684391086 0 0 0
1263 0 3 -0.834 5.72401780992816 4.03686836770567 14.817459649383101 0 0 0
1259 0 4 0.417 10.104582046811219 5.567413120272288 15.062753393185272 0 0 0
1258 0 4 0.417 8.729376213691213 5.322461764991066 15.610250692933022 0 0 0
1257 0 3 -0.834 9.173186274991082 5.598657032506582 14.793362863161457 0 0 0
1288 0 4 0.417 8.255444799340554 1.079858534681062 15.248870674033425 0 0 0
109 0 4 0.417 4.232853863151175 7.847911321732385 12.089870480690422 0 0 0
1412 0 4 0.417 0.20223853763756502 8.16548786047024 15.875271841893314 0 0 0
1393 0 4 0.417 1.1593277448647055 6.845288496971152 12.145004433462596 0 0 0
1348 0 4 0.417 2.8871298538120755 7.294170668150155 14.759684776267507 0 0 0
1232 0 6 1 2.3279660895083323 8.609934547363059 12.815328458441616 0 0 0
1307 0 4 0.417 2.991363201508994 10.562116232097804 12.008299882076532 0 0 0
1267 0 4 0.417 4.076170743914557 9.285845835792092 15.42078724591779 0 0 0
1266 0 3 -0.834 4.170338484100009 10.080125067912386 14.880345871417314 0 0 0
1990 0 4 0.417 1.5897869305900698 10.329850541617052 14.56991546885867 0 0 0
1988 0 3 -0.834 0.9668524980302514 11.044051343017886 14.777583723913157 0 0 0
1989 0 4 0.417 1.385186426551129 11.438226059870042 15.55947150206065 0 0 0
1410 0 3 -0.834 0.014210498353619743 7.7925790612661965 15.00167354102544 0 0 0
1411 0 4 0.417 -0.3600720497153194 6.929449464732741 15.231206117249998 0 0 0
1234 0 4 0.417 9.677584905704983 7.6904328870215695 12.09115525969107 0 0 0
1268 0 4 0.417 5.00236826359482 10.452797352478589 15.198344967335077 0 0 0
1233 0 3 -0.834 8.751125735163027 7.854589233531626 12.198779422831045 0 0 0
1235 0 4 0.417 8.61045268812093 8.781347158949806 12.063906335961725 0 0 0
1252 0 4 0.417 7.506971829458281 11.009699221197826 15.296194542754863 0 0 0
1286 0 4 0.417 7.0826209434918 7.598030284027692 15.187266363865266 0 0 0
1285 0 4 0.417 6.14897244582872 6.414536137623429 15.222278643232409 0 0 0
1284 0 3 -0.834 6.188786244405691 7.335226500349614 14.93902425154407 0 0 0
1270 0 4 0.417 10.6916349639772 8.554793721974486 15.680243873190827 0 0 0
1269 0 3 -0.834 10.867626595180722 8.394229044202278 14.748141405997131 0 0 0
1253 0 4 0.417 8.459442009739883 9.870490237006697 15.057126810170308 0 0 0
1251 0 3 -0.834 7.596618763579434 10.201966896892337 14.77174756172343 0 0 0
1883 0 3 -0.834 10.759958483464157 11.841462709074476 14.842512780822835 0 0 0
1885 0 4 0.417 10.573771390049366 11.764685396824682 15.790086772716592 0 0 0
2018 0 3 -0.834 0.21577632310483638 13.773430112124839 12.131789065960211 0 0 0
1979 0 3 -0.834 -1.0178446449478866 13.9509343381857 15.378713815861419 0 0 0
1981 0 4 0.417 -0.3063650102254109 13.773845393917398 16.009393587628555 0 0 0
1980 0 4 0.417 -0.8838775867658221 13.254631215812712 14.72134207099024 0 0 0
2020 0 4 0.417 1.1379098450417016 13.941956478000524 12.28131450370057 0 0 0
1930 0 4 0.417 1.830136422995824 16.250609791069024 15.607043349437914 0 0 0
1928 0 3 -0.834 1.432352703883002 16.294419223425926 14.728096337464917 0 0 0
1844 0 3 -0.834 3.619030637653165 16.56231916330216 12.269493601788664 0 0 0
1825 0 4 0.417 3.2200062323486627 14.20273463030821 15.182272376487727 0 0 0
1824 0 4 0.417 4.340522421268556 13.207128102376537 15.287747042430894 0 0 0
1823 0 3 -0.834 3.562054301763223 13.407757928574606 14.74800546441664 0 0 0
2038 0 4 0.417 -1.333587158973593 16.468088408800586 17.359426374169637 0 0 0
1929 0 4 0.417 0.6600355136778018 16.85507267990321 14.877225958533169 0 0 0
1978 0 4 0.417 -0.07078648729721296 18.721793943608358 12.102647796828965 0 0 0
1933 0 4 0.417 3.3805403016012407 18.999618203700887 15.683464100101382 0 0 0
1931 0 3 -0.834 3.103277215227851 19.117455840611896 14.761629184288495 0 0 0
719 0 4 0.417 9.435305461037263 16.74101434212846 12.012772152678599 0 0 0
720 0 4 0.417 8.130812678714245 17.492298622449994 12.009580723087886 0 0 0
1822 0 4 0.417 6.475351851623918 12.919127465535533 12.071158385475712 0 0 0
699 0 4 0.417 9.386794537498824 13.235545952451801 12.070024292474177 0 0 0
1872 0 4 0.417 8.259182633870827 13.829601969334714 15.270037955069657 0 0 0
718 0 3 -0.834 8.4808958666419 16.592238507788114 12.040938576226218 0 0 0
1882 0 4 0.417 10.309005488910003 15.270280219118137 15.644987746635017 0 0 0
1880 0 3 -0.834 10.57256376822065 15.34261970880162 14.735095791308794 0 0 0
1873 0 4 0.417 6.774153273116605 13.717056164621363 15.452452271695499 0 0 0
1871 0 3 -0.834 7.453620204779839 13.63769989802542 14.76502796381965 0 0 0
1849 0 4 0.417 5.027363457461589 16.44448660270233 15.394460469962663 0 0 0
1848 0 4 0.417 6.520437277058019 16.404535359437787 15.197879570926325 0 0 0
1847 0 3 -0.834 5.721292384788086 16.79375543992709 14.8217340714555 0 0 0
1843 0 4 0.417 10.11077110595737 18.31172880220041 15.054123714539543 0 0 0
1842 0 4 0.417 8.730040182398108 18.092260608231516 15.605441143994387 0 0 0
1841 0 3 -0.834 9.180123731230951 18.359609163334657 14.791210454970818 0 0 0
693 0 4 0.417 4.238616982581888 20.568683425680902 12.099297256207496 0 0 0
1404 0 3 -0.834 0.967324821789312 23.806557774094927 14.775676223730741 0 -1 0
1406 0 4 0.417 1.6010058495191302 23.101374958190284 14.57197509121578 0 -1 0
1405 0 4 0.417 1.3685088606605047 24.2017270146589 15.565400380344618 0 -1 0
1996 0 4 0.417 0.19998041951429993 20.939935738825877 15.872644847825013 0 0 0
1977 0 4 0.417 1.1537380017974002 19.590514412592437 12.153604525286319 0 0 0
1932 0 4 0.417 2.9066299051891096 20.066713035661767 14.741109259864249 0 0 0