LAMMPS data file via write_data, version 29 Sep 2021, timestep = 800

2336 atoms
6 atom types
1216 bonds
1 bond types
608 angles
1 angle types

-1.5 50.06 xlo xhi
0 25.524 ylo yhi
0 24 zlo zhi

Atoms # full

176 0 3 -0.834 2.6735766118029467 4.296168671109069 1.881851131945646 0 0 0
178 0 4 0.417 3.6123236628537465 4.297271757282498 2.1044620045175697 0 0 0
266 0 3 -0.834 -0.4108354625484338 3.603819413974497 2.6294338425498798 0 0 0
267 0 4 0.417 -0.5188164668490796 3.4657557070871468 1.6790617074371168 0 0 0
268 0 4 0.417 -0.8153967595050114 2.831751126979696 3.036485501474383 0 0 0
71 0 3 -0.834 4.297892182671787 1.5536412448863608 2.0539518425715406 0 0 0
73 0 4 0.417 4.589282260518511 2.451862015264179 2.215648973946165 0 0 0
93 0 4 0.417 2.7452970481011683 4.184134092822463 0.15819572484663746 0 0 0
177 0 4 0.417 2.356173022300894 3.4349639917534396 2.18348288555954 0 0 0
237 0 4 0.417 3.044997369873374 0.04325640222863393 1.782307780575113 0 0 0
64 0 6 1 0.6093785782369656 6.14534291321147 1.6216276314734868 0 0 0
72 0 4 0.417 4.9874281163830245 1.0037037886438815 2.4312559860572853 0 0 0
69 0 4 0.417 4.765399009521428 1.2787888249304562 0.33338788258891183 0 0 0
90 0 4 0.417 9.531358473990583 6.127187049994443 1.9561627386162137 0 0 0
95 0 3 -0.834 5.322620012076219 4.031761424917949 2.5324531191667075 0 0 0
96 0 4 0.417 5.77241944836502 4.46471058704838 1.8042581828470123 0 0 0
97 0 4 0.417 5.969872336429078 4.0121531613755925 3.2435103909813763 0 0 0
121 0 4 0.417 7.1744201172464965 0.17141897450531343 1.8099161411394105 0 0 0
1283 0 4 0.417 8.71889657256635 1.8125879275167405 1.129191702600418 0 0 1
128 0 3 -0.834 10.19108620633742 2.6141232993738233 1.753021241049798 0 0 0
129 0 4 0.417 10.092046929553158 3.533222908433623 2.0154113950301564 0 0 0
130 0 4 0.417 11.105861468825621 2.558605747118829 1.4509749566743397 0 0 0
1302 0 3 -0.834 6.74192638851139 5.220323471936738 0.5545547586090643 0 0 1
119 0 3 -0.834 6.732084866167428 25.371552401086824 2.60951680130036 0 -1 0
1304 0 4 0.417 7.4223234304485874 5.803293824937705 0.9119992504452634 0 0 1
120 0 4 0.417 7.281354323185378 0.16153784631296098 3.3288826914603136 0 0 0
1281 0 3 -0.834 7.932673740091484 1.428300942424651 0.730236406586282 0 0 1
1424 0 4 0.417 -0.6937516778845294 11.350996767980433 1.0929510767202515 0 0 1
180 0 4 0.417 -0.14238383131899088 9.228227497556258 2.2475313880318057 0 0 0
181 0 4 0.417 0.932050218480232 9.168621829890089 3.332935896418422 0 0 0
179 0 3 -0.834 0.3255687178910351 8.620572575553304 2.8322718365526245 0 0 0
99 0 4 0.417 5.462571342070154 9.82447064443996 2.9600001235919935 0 0 0
822 0 4 0.417 3.3872856419519533 11.387462597418718 2.7452686471003527 0 0 0
820 0 3 -0.834 2.655205011687294 11.955619204297047 2.4804277564260206 0 0 0
1454 0 4 0.417 -1.3183520317770436 4.214169553840731 19.228326896492767 0 0 0
1423 0 4 0.417 0.46294813041136 10.46733015995547 0.6573312632728328 0 0 1
1422 0 3 -0.834 -0.46080351839290973 10.435579853039146 0.9360125732208042 0 0 1
98 0 3 -0.834 5.025955123785348 10.683451912109636 2.9900396283440744 0 0 0
138 0 4 0.417 2.428015474805221 11.089521966762993 1.0394455675582124 0 0 0
137 0 3 -0.834 2.208445928531907 10.476181901090674 0.3256768286599952 0 0 0
89 0 3 -0.834 8.863065998408981 6.662102691675507 1.517466315938073 0 0 0
117 0 4 0.417 5.982212005468667 8.16103919351367 1.7024476136021756 0 0 0
1275 0 3 -0.834 5.493410839144154 8.36041595329081 0.05050348000101625 0 0 1
91 0 4 0.417 8.936255862397543 7.526556732508702 1.9397459206045828 0 0 0
84 0 4 0.417 8.608341899216438 10.201763147545979 23.71344518119489 0 0 -1
118 0 4 0.417 6.1658853105754385 7.183295131346481 2.8558231615921845 0 0 0
116 0 3 -0.834 6.300925446608797 8.099644043429944 2.6180282240912307 0 0 0
102 0 4 0.417 8.023040793790468 8.920145066243984 2.707209734078083 0 0 0
101 0 3 -0.834 8.97527935596969 9.04004253666469 2.631911741596715 0 0 0
100 0 4 0.417 5.746047940263901 11.31700783639965 2.8967733750061764 0 0 0
103 0 4 0.417 9.088854043428768 9.99938023426304 2.603652469201735 0 0 0
66 0 4 0.417 9.931814956945484 6.95391033982805 0.12443253160175943 0 0 0
717 0 4 0.417 10.996647815589359 12.430768613377278 1.8468981800723037 0 0 0
83 0 3 -0.834 7.649017029442214 10.117200014295367 23.70991008127797 0 0 -1
1276 0 4 0.417 6.14662533313239 9.04923532238615 23.91046049020198 0 0 0
821 0 4 0.417 3.010789491504833 12.85005038258646 2.5059558325141023 0 0 0
852 0 4 0.417 -1.0508312431583087 15.079925143553293 3.09817870930136 0 0 0
851 0 4 0.417 -0.47780980333733436 14.988312688717219 1.7031771707103707 0 0 0
850 0 3 -0.834 -0.37315298467946734 15.448507405143427 2.54126177913239 0 0 0
762 0 4 0.417 2.9928988252520456 16.73372820143032 2.4238201545704996 0 0 0
760 0 3 -0.834 2.0858446550317824 16.991278080843326 2.6102024458932607 0 0 0
657 0 4 0.417 4.638972954578555 14.967873733175118 2.6003831069114276 0 0 0
655 0 3 -0.834 4.44089732558885 14.03096871355085 2.5416113889743315 0 0 0
677 0 4 0.417 3.702047518092922 16.977616592355545 0.25314771120371865 0 0 0
761 0 4 0.417 1.6311382355497162 16.159300546163088 2.7574934793774055 0 0 0
648 0 6 1 0.5438437087815818 18.372951869984007 1.0443602643872185 0 0 0
676 0 3 -0.834 2.9225014166668988 17.278040299839546 23.783802396412344 0 0 -1
1922 0 3 -0.834 -0.6087045449938155 14.262754549916197 0.04660859581309467 0 0 1
704 0 4 0.417 7.569427150057219 13.263259094444896 3.470594383202011 0 0 0
656 0 4 0.417 5.263617791080976 13.602861374942238 2.787676638807149 0 0 0
703 0 3 -0.834 6.910050531303334 12.88075800691171 2.8999403771870433 0 0 0
1867 0 4 0.417 8.775576148605603 14.269967971926055 1.0655563842217477 0 0 1
714 0 4 0.417 11.217122555448585 14.725591731542995 1.3835184747118388 0 0 0
713 0 4 0.417 10.102360736274651 15.557329311685924 2.0250549090959713 0 0 0
712 0 3 -0.834 10.326418040008736 14.65527642639228 1.7550752955916158 0 0 0
705 0 4 0.417 7.162304633415656 13.181123347798053 2.0245033696128423 0 0 0
681 0 4 0.417 4.845793731158677 17.436833207241758 2.9722760728448625 0 0 0
680 0 4 0.417 5.4379366269265415 16.946116459209456 1.658478968922664 0 0 0
679 0 3 -0.834 4.820954141364776 16.694788259420687 2.35359000616297 0 0 0
674 0 4 0.417 9.02423713919788 18.901618454152732 1.8745460509729066 0 0 0
1886 0 3 -0.834 6.3206461428376715 17.657812804050785 0.3127380114195036 0 0 1
1888 0 4 0.417 6.948527836933388 18.297832490391468 0.6327118681165891 0 0 1
653 0 4 0.417 4.6563046607185345 13.582265172038323 0.8134314738068114 0 0 0
1865 0 3 -0.834 7.916959367625167 14.127753671028415 0.6524068909484145 0 0 1
2011 0 4 0.417 -1.1952192960998589 20.47369285547358 15.463411577164313 0 0 0
236 0 3 -0.834 2.7282142370845377 24.6601226457812 1.6939475406569684 0 -1 0
238 0 4 0.417 3.4246846388694903 24.12345506450723 2.105356291426861 0 -1 0
764 0 4 0.417 0.0717721847279871 21.34130679283745 2.2869924037776364 0 0 0
765 0 4 0.417 1.3289456325080797 21.153804945186593 3.0926183561675256 0 0 0
763 0 3 -0.834 0.5757298439621109 20.681530287755354 2.754305646893541 0 0 0
683 0 4 0.417 5.072258052571624 22.350141553817792 2.8753953846338254 0 0 0
2038 0 4 0.417 -1.244039953500963 17.34963258181668 18.791075599533873 0 0 0
2007 0 4 0.417 -0.3414370108051001 23.021886387218025 1.0651607275002875 0 0 1
2006 0 3 -0.834 -1.041764183548063 22.443164910856947 1.4084283404349394 0 0 1
682 0 3 -0.834 4.808410906523551 23.268821333094326 2.832183425209008 0 0 0
722 0 4 0.417 1.7125653046798874 23.868487130581478 0.6963664698785448 0 0 0
721 0 3 -0.834 1.1371828444302083 23.370791859900333 0.11411465642770814 0 0 0
673 0 3 -0.834 8.229821273551131 19.43996992680701 1.8243063416581 0 0 0
701 0 4 0.417 5.02478840786087 20.366654716202135 1.7958661535515168 0 0 0
1859 0 3 -0.834 4.39642144154389 20.720661083714504 23.8662799241493 0 0 0
675 0 4 0.417 8.543897343220083 20.347934034400343 1.8047654494150145 0 0 0
668 0 4 0.417 7.593917512813754 22.382997138502265 0.5528330291790359 0 0 0
702 0 4 0.417 6.409695576091371 20.15316767496502 2.3821550966925535 0 0 0
700 0 3 -0.834 5.538037594410167 20.458529638564993 2.6110294897606274 0 0 0
686 0 4 0.417 9.242217743392422 22.58538758476162 2.5869640890803494 0 0 0
685 0 3 -0.834 9.259956669078194 22.03460576220291 1.8081672162032743 0 0 0
684 0 4 0.417 5.616319794466965 23.7486472229272 2.6218265565291796 0 0 0
687 0 4 0.417 10.180130476368811 21.766060982883378 1.7247139840687589 0 0 0
1427 0 4 0.417 -1.2226593971466717 7.939843100806682 15.571306603891005 0 0 0
1860 0 4 0.417 5.053401471499625 21.391090880491987 0.0731168041481709 0 0 1
133 0 4 0.417 11.04976023239502 24.802194904783057 1.6038620357366042 0 -1 0
667 0 3 -0.834 6.707917340833758 22.36315652330769 0.18171552756759385 0 0 0
2 0 2 -0 0.7720000000000002 0.709 6 0 0 0
3 0 2 -0 0.7720000000000002 2.127 6 0 0 0
22 0 2 -0 0.7720000000000002 4.963 6 0 0 0
200 0 3 -0.834 2.78819196914806 1.3146149519877284 9.693687567371846 0 0 0
201 0 4 0.417 3.138179783310732 1.9619543449329873 9.087193153429917 0 0 0
202 0 4 0.417 3.46031923874854 0.6305607006086151 9.720245329161783 0 0 0
219 0 4 0.417 2.9247409740709274 5.806128332495998 10.169816228397616 0 0 0
5 0 2 -0 4.4559999999999995 0 6 0 0 0
6 0 2 -0 3.2279999999999998 0.709 6 0 0 0
7 0 2 -0 3.2279999999999998 2.127 6 0 0 0
8 0 2 -0 4.4559999999999995 2.836 6 0 0 0
25 0 2 -0 4.4559999999999995 4.254 6 0 0 0
26 0 2 -0 3.2279999999999998 4.963 6 0 0 0
21 0 2 -0 2 4.254 6 0 0 0
4 0 2 -0 2 2.836 6 0 0 0
1 0 2 -0 2 0 6 0 0 0
218 0 3 -0.834 2.812403876647642 6.480173523593931 9.487558388980714 0 0 0
1262 0 4 0.417 3.7645895880751246 4.00275486593849 10.832299325535688 0 0 0
170 0 3 -0.834 -0.0738370095873656 1.222770910930422 10.470113354167955 0 0 0
172 0 4 0.417 0.8837589560548949 1.2439404974418267 10.384099506422801 0 0 0
61 0 5 -1 -0.9010753924370846 4.462973404007743 10.97315773510765 0 0 0
171 0 4 0.417 -0.3056413672294413 2.137568299469511 10.659357583405363 0 0 0
1260 0 3 -0.834 3.0763340627281606 4.500458086884251 11.278398422309385 0 0 0
220 0 4 0.417 2.0449371056084815 6.188875639052388 8.98882919961235 0 0 0
144 0 4 0.417 4.410645347131762 6.805456171098368 9.435767660216944 0 0 0
162 0 4 0.417 -1.0256005742901921 0.23850836430900849 9.792649129989021 0 0 0
79 0 4 0.417 5.491219658477712 2.7358812120346983 10.140960623649288 0 0 0
77 0 3 -0.834 5.451398101610397 3.5709181167142092 9.662461249510368 0 0 0
9 0 2 -0 6.911999999999999 0 6 0 0 0
10 0 2 -0 5.683999999999999 0.709 6 0 0 0
11 0 2 -0 5.683999999999999 2.127 6 0 0 0
12 0 2 -0 6.911999999999999 2.836 6 0 0 0
13 0 2 -0 9.367999999999999 0 6 0 0 0
14 0 2 -0 8.14 0.709 6 0 0 0
15 0 2 -0 8.14 2.127 6 0 0 0
16 0 2 -0 9.367999999999999 2.836 6 0 0 0
18 0 2 -0 10.596 0.709 6 0 0 0
19 0 2 -0 10.596 2.127 6 0 0 0
29 0 2 -0 6.911999999999999 4.254 6 0 0 0
30 0 2 -0 5.683999999999999 4.963 6 0 0 0
33 0 2 -0 9.367999999999999 4.254 6 0 0 0
34 0 2 -0 8.14 4.963 6 0 0 0
38 0 2 -0 10.596 4.963 6 0 0 0
78 0 4 0.417 6.349701111075871 3.9153110479126956 9.718736369235907 0 0 0
111 0 4 0.417 8.608948223178581 4.568125529030804 10.148773741710187 0 0 0
114 0 4 0.417 8.17796198655689 0.891849884798256 11.293784202674132 0 0 0
135 0 4 0.417 7.174952770928911 5.078371354298044 11.707593099490921 0 0 0
146 0 3 -0.834 8.987916640474403 1.2095277973183667 9.687862561043422 0 0 0
147 0 4 0.417 9.133083740940377 1.7631182473964293 8.923509973643172 0 0 0
112 0 4 0.417 8.066356591281806 5.918077409196478 9.70613202519014 0 0 0
110 0 3 -0.834 7.795119640251476 5.051852628889569 10.016895457388177 0 0 0
1236 0 3 -0.834 5.253411532962239 1.276777448158558 11.577219626195395 0 0 0
148 0 4 0.417 9.668587267037354 0.522390262862152 9.626881742361414 0 0 0
1238 0 4 0.417 6.165695580647872 1.1650312030206411 11.856531559695375 0 0 0
151 0 4 0.417 2.8892241514366552 9.276382444774733 8.691024737829876 0 0 0
150 0 4 0.417 3.0924283116245586 10.614126821250714 9.386068408459959 0 0 0
149 0 3 -0.834 2.4112979646512946 9.985680980422103 9.134171100657918 0 0 0
43 0 2 -0 0.7720000000000002 10.635 6 0 0 0
42 0 2 -0 0.7720000000000002 9.217 6 0 0 0
23 0 2 -0 0.7720000000000002 6.381 6 0 0 0
44 0 2 -0 2 11.344 6 0 0 0
41 0 2 -0 2 8.508 6 0 0 0
24 0 2 -0 2 7.09 6 0 0 0
48 0 2 -0 4.4559999999999995 11.344 6 0 0 0
47 0 2 -0 3.2279999999999998 10.635 6 0 0 0
46 0 2 -0 3.2279999999999998 9.217 6 0 0 0
45 0 2 -0 4.4559999999999995 8.508 6 0 0 0
28 0 2 -0 4.4559999999999995 7.09 6 0 0 0
27 0 2 -0 3.2279999999999998 6.381 6 0 0 0
1231 0 6 1 -1.302773781669142 8.185417919852467 11.087757310421042 0 0 0
157 0 4 0.417 0.6570728868339389 10.263437343147404 9.590425475552507 0 0 0
155 0 3 -0.834 -0.2985540644111268 10.311224018835276 9.681083670875545 0 0 0
156 0 4 0.417 -0.5678350360445533 10.89073834089571 8.960407843683475 0 0 0
746 0 4 0.417 -1.166079694768566 11.974694100800734 6.7974972409435725 0 0 0
1393 0 4 0.417 1.7784845677709573 8.690574555579257 11.89164669460217 0 0 0
1307 0 4 0.417 3.2491352609137683 10.134251126475887 12.281163267838199 0 0 0
671 0 4 0.417 4.873129486960838 12.157651853331583 10.52649487913259 0 0 0
670 0 3 -0.834 4.576148977868303 11.728709697806284 9.704209041735448 0 0 0
1394 0 4 0.417 1.9950923506865836 7.652765197500825 10.79941632867617 0 0 0
1392 0 3 -0.834 1.3784502109405936 7.914150785786974 11.480221132253677 0 0 0
145 0 4 0.417 5.641522184556276 5.912081405156995 9.51276575949737 0 0 0
143 0 3 -0.834 5.34335740659323 6.816304415024273 9.666647229615485 0 0 0
109 0 4 0.417 5.045823166793603 7.31120439814683 11.491187324222608 0 0 0
124 0 4 0.417 9.744610740113732 7.794892726761025 8.53580614247585 0 0 0
142 0 4 0.417 6.170187752276955 8.324680419436804 9.513984866682536 0 0 0
141 0 4 0.417 7.628271233596644 8.710726700586687 9.363844792455287 0 0 0
140 0 3 -0.834 6.770400104877706 9.076487032444636 9.579042459141899 0 0 0
870 0 4 0.417 -1.2153035349122077 17.181207966212355 6.712788401404511 0 0 0
125 0 3 -0.834 11.276517511044483 12.355113861766224 9.987279002205813 0 0 0
122 0 3 -0.834 9.233219195275636 7.49833948758715 9.295734691804853 0 0 0
59 0 2 -0 10.596 10.635 6 0 0 0
58 0 2 -0 10.596 9.217 6 0 0 0
56 0 2 -0 9.367999999999999 11.344 6 0 0 0
55 0 2 -0 8.14 10.635 6 0 0 0
54 0 2 -0 8.14 9.217 6 0 0 0
53 0 2 -0 9.367999999999999 8.508 6 0 0 0
52 0 2 -0 6.911999999999999 11.344 6 0 0 0
51 0 2 -0 5.683999999999999 10.635 6 0 0 0
50 0 2 -0 5.683999999999999 9.217 6 0 0 0
49 0 2 -0 6.911999999999999 8.508 6 0 0 0
39 0 2 -0 10.596 6.381 6 0 0 0
36 0 2 -0 9.367999999999999 7.09 6 0 0 0
35 0 2 -0 8.14 6.381 6 0 0 0
32 0 2 -0 6.911999999999999 7.09 6 0 0 0
31 0 2 -0 5.683999999999999 6.381 6 0 0 0
1253 0 4 0.417 7.043770789890602 9.460571466165405 11.339795065689222 0 0 0
1233 0 3 -0.834 11.124541027162449 7.25849456323997 11.277212677490782 0 0 0
672 0 4 0.417 5.364344348964974 11.27769449071424 9.376414440091176 0 0 0
123 0 4 0.417 9.866410528604675 7.486241983953323 10.027345980685576 0 0 0
75 0 4 0.417 11.254361222039343 8.959254992414298 11.06179557174801 0 0 0
74 0 3 -0.834 11.280347043123017 9.925549735756881 11.043522514330904 0 0 0
803 0 4 0.417 1.1142820532729143 18.25496337685652 9.424353341234891 0 0 0
786 0 4 0.417 3.750231171975875 13.659965964824995 9.56174195427907 0 0 0
785 0 4 0.417 2.5101091876881227 14.363134479267755 9.058603689789411 0 0 0
784 0 3 -0.834 3.386451235757856 14.529887701059925 9.416758507604658 0 0 0
606 0 2 -0 0.7720000000000002 17.725 6 0 0 0
587 0 2 -0 0.7720000000000002 14.889 6 0 0 0
586 0 2 -0 0.7720000000000002 13.471 6 0 0 0
605 0 2 -0 2 17.016 6 0 0 0
588 0 2 -0 2 15.598 6 0 0 0
585 0 2 -0 2 12.762 6 0 0 0
663 0 4 0.417 4.302064738830913 16.060323179457335 9.717961491310637 0 0 0
610 0 2 -0 3.2279999999999998 17.725 6 0 0 0
609 0 2 -0 4.4559999999999995 17.016 6 0 0 0
592 0 2 -0 4.4559999999999995 15.598 6 0 0 0
591 0 2 -0 3.2279999999999998 14.889 6 0 0 0
590 0 2 -0 3.2279999999999998 13.471 6 0 0 0
589 0 2 -0 4.4559999999999995 12.762 6 0 0 0
802 0 3 -0.834 1.8631531961531207 18.823508077890654 9.22789183746375 0 0 0
1846 0 4 0.417 2.836698614467534 17.41874642774122 10.77479005019842 0 0 0
645 0 5 -1 -0.808421259170604 17.119893990504927 10.31707645123084 0 0 0
756 0 4 0.417 1.6159122434769202 14.758832076582392 11.936440781939705 0 0 0
755 0 4 0.417 0.27737517450058957 15.348658213639355 11.557970007512425 0 0 0
1844 0 3 -0.834 2.8774910482677716 17.462859058382232 11.732365762151222 0 0 0
728 0 4 0.417 4.9525694305088415 18.713274357836017 9.397396151039224 0 0 0
661 0 3 -0.834 4.948506050573333 16.763116524666838 9.81754304677894 0 0 0
731 0 4 0.417 9.129284894133969 13.778181819723496 8.706125763546382 0 0 0
730 0 3 -0.834 9.218633137242382 13.900143250287568 9.649117377971345 0 0 0
719 0 4 0.417 6.838931458030117 17.44466031181672 11.643839045202213 0 0 0
698 0 4 0.417 8.383260764612997 13.963102981244338 11.159165583329992 0 0 0
695 0 4 0.417 8.892478798539429 17.66122650024768 9.363616401395669 0 0 0
662 0 4 0.417 5.791506789638703 16.346721765924205 9.661900039347461 0 0 0
622 0 2 -0 10.596 17.725 6 0 0 0
618 0 2 -0 8.14 17.725 6 0 0 0
617 0 2 -0 9.367999999999999 17.016 6 0 0 0
614 0 2 -0 5.683999999999999 17.725 6 0 0 0
613 0 2 -0 6.911999999999999 17.016 6 0 0 0
603 0 2 -0 10.596 14.889 6 0 0 0
602 0 2 -0 10.596 13.471 6 0 0 0
600 0 2 -0 9.367999999999999 15.598 6 0 0 0
599 0 2 -0 8.14 14.889 6 0 0 0
598 0 2 -0 8.14 13.471 6 0 0 0
597 0 2 -0 9.367999999999999 12.762 6 0 0 0
596 0 2 -0 6.911999999999999 15.598 6 0 0 0
595 0 2 -0 5.683999999999999 14.889 6 0 0 0
594 0 2 -0 5.683999999999999 13.471 6 0 0 0
593 0 2 -0 6.911999999999999 12.762 6 0 0 0
694 0 3 -0.834 8.184360672557519 18.28950104175301 9.529667959111004 0 0 0
1820 0 3 -0.834 5.457517452283857 12.982954046568112 11.898471310745112 0 0 0
732 0 4 0.417 9.991580789232005 13.380025321595015 9.880364014658754 0 0 0
729 0 4 0.417 6.432598371657713 19.04304100806849 9.46447752842941 0 0 0
1822 0 4 0.417 6.361123114943545 13.310894741410042 11.924880284975572 0 0 0
804 0 4 0.417 1.7981969899581314 19.544516590590586 9.855104902955635 0 0 0
735 0 4 0.417 3.0130423347649895 22.550081274562555 8.914192773721892 0 0 0
734 0 4 0.417 3.474435206998727 23.915995047994127 9.403476120060636 0 0 0
733 0 3 -0.834 2.7236642198353973 23.310372664437573 9.409820858312395 0 0 0
627 0 2 -0 0.7720000000000002 23.397 6 0 0 0
626 0 2 -0 0.7720000000000002 21.979 6 0 0 0
607 0 2 -0 0.7720000000000002 19.143 6 0 0 0
628 0 2 -0 2 24.106 6 0 0 0
625 0 2 -0 2 21.27 6 0 0 0
608 0 2 -0 2 19.852 6 0 0 0
632 0 2 -0 4.4559999999999995 24.106 6 0 0 0
631 0 2 -0 3.2279999999999998 23.397 6 0 0 0
630 0 2 -0 3.2279999999999998 21.979 6 0 0 0
629 0 2 -0 4.4559999999999995 21.27 6 0 0 0
612 0 2 -0 4.4559999999999995 19.852 6 0 0 0
611 0 2 -0 3.2279999999999998 19.143 6 0 0 0
1815 0 6 1 -1.1300396915695579 21.274014310530976 11.105451977793857 0 0 0
740 0 4 0.417 -0.39338696492953634 23.79151808081992 9.244344106497158 0 0 0
739 0 3 -0.834 0.056540512235049904 22.95481740205847 9.406373745860831 0 0 0
741 0 4 0.417 0.9938055324708034 23.16327081351794 9.32159349558769 0 0 0
1977 0 4 0.417 1.6912085752447392 21.464138498161077 11.891519137203456 0 0 0
1891 0 4 0.417 2.1695443503478464 23.475210351914036 11.242041151980503 0 0 0
1826 0 3 -0.834 11.070390205224284 22.796376978700355 23.16324965888076 0 0 0
86 0 3 -0.834 4.906304093686417 24.82503109013179 9.59330573439075 0 -1 0
87 0 4 0.417 5.180186045555069 25.42250283149156 10.304521212304861 0 -1 0
1978 0 4 0.417 2.5774709703337213 20.252754042655713 11.688125506836807 0 0 0
1976 0 3 -0.834 1.6624343040439018 20.548138870176004 11.615490871833131 0 0 0
707 0 4 0.417 9.845297283014025 20.61280352935302 10.325228172502658 0 0 0
696 0 4 0.417 8.614600524021954 19.143068929949244 9.503547643005042 0 0 0
727 0 3 -0.834 5.557775439423958 19.443571727485924 9.558228850336072 0 0 0
693 0 4 0.417 4.867949220960953 19.953643510422406 11.145481980186945 0 0 0
88 0 4 0.417 5.628908010490541 24.19094943504444 9.529091081554729 0 -1 0
708 0 4 0.417 9.538928941949436 21.72271446619314 9.327051984899342 0 0 0
726 0 4 0.417 5.9225325490889995 21.16963167967286 9.392552847183525 0 0 0
725 0 4 0.417 7.3637213554864305 21.62398343019584 9.289041033403963 0 0 0
724 0 3 -0.834 6.485939820411925 21.945477897233364 9.503731077464924 0 0 0
710 0 4 0.417 11.120630853034692 24.33937552128243 10.008145955046421 0 0 0
709 0 3 -0.834 11.08982480195405 25.08739108835942 9.400751281370109 0 0 0
706 0 3 -0.834 9.21810008793114 20.871800515982322 9.647874095648916 0 0 0
643 0 2 -0 10.596 23.397 6 0 0 0
642 0 2 -0 10.596 21.979 6 0 0 0
640 0 2 -0 9.367999999999999 24.106 6 0 0 0
639 0 2 -0 8.14 23.397 6 0 0 0
638 0 2 -0 8.14 21.979 6 0 0 0
637 0 2 -0 9.367999999999999 21.27 6 0 0 0
636 0 2 -0 6.911999999999999 24.106 6 0 0 0
635 0 2 -0 5.683999999999999 23.397 6 0 0 0
634 0 2 -0 5.683999999999999 21.979 6 0 0 0
633 0 2 -0 6.911999999999999 21.27 6 0 0 0
623 0 2 -0 10.596 19.143 6 0 0 0
620 0 2 -0 9.367999999999999 19.852 6 0 0 0
619 0 2 -0 8.14 19.143 6 0 0 0
616 0 2 -0 6.911999999999999 19.852 6 0 0 0
615 0 2 -0 5.683999999999999 19.143 6 0 0 0
1837 0 4 0.417 6.635843718777163 22.306239169369697 11.333058136405352 0 0 0
1817 0 3 -0.834 11.130806760867916 20.282885194434886 11.339301610134394 0 0 0
658 0 3 -0.834 11.076690536998347 23.002624727403926 11.387447913833688 0 0 0
659 0 4 0.417 11.150932435698135 22.068383720719687 11.622008811609879 0 0 0
1344 0 3 -0.834 2.6355684832800366 4.34346298971161 14.317830389606577 0 0 0
1346 0 4 0.417 3.558771023057819 4.243822282873498 14.578903633582028 0 0 0
1434 0 3 -0.834 -0.372064675317093 3.2546289104119275 14.391940378416846 0 0 0
1435 0 4 0.417 -0.5235629712655182 3.0418537728113955 13.468153694783759 0 0 0
1436 0 4 0.417 -0.7806132924625793 2.5316089840376077 14.873638053773961 0 0 0
1241 0 4 0.417 4.904703483834727 2.37291195618663 14.527623967327067 0 0 0
1239 0 3 -0.834 4.603105663731947 1.51717822692939 14.210311866835056 0 0 0
1261 0 4 0.417 3.1109140387033696 4.203168762326733 12.187702714756595 0 0 0
1345 0 4 0.417 2.192680855150171 3.5750457072644486 14.684074854740034 0 0 0
1405 0 4 0.417 3.4327396424991856 0.10950504402715752 14.137812463939554 0 0 0
1232 0 6 1 0.6531832777930844 5.994495314301072 13.356651567108088 0 0 0
113 0 3 -0.834 7.938002156782937 0.8541362637239177 12.220206806802151 0 0 0
1240 0 4 0.417 5.323953165038355 0.9185805642044654 14.44588549162354 0 0 0
1237 0 4 0.417 4.757515204012095 1.4017337230700944 12.394179550028039 0 0 0
136 0 4 0.417 7.884960059631327 5.80135609647865 12.850674237621035 0 0 0
134 0 3 -0.834 7.151428552658303 5.207939848285165 12.660531529677217 0 0 0
115 0 4 0.417 8.729156799085978 1.1259256324222229 12.687623281120342 0 0 0
1298 0 4 0.417 10.87969222652247 2.0297887846715006 13.078474306761233 0 0 0
1297 0 4 0.417 10.150349316018218 2.0377902835329462 14.432836878347944 0 0 0
1296 0 3 -0.834 10.232643389054868 1.5353653601923336 13.610985671750361 0 0 0
1289 0 4 0.417 7.168830338718182 25.50996816326152 13.703011925393897 0 -1 0
1265 0 4 0.417 5.78730329706592 4.708988190739983 15.477355082208298 0 0 0
1264 0 4 0.417 5.860202221398937 4.462258210102202 13.981668298045632 0 0 0
1263 0 3 -0.834 5.4172908482538 4.160094634141205 14.775163035321766 0 0 0
1258 0 4 0.417 9.953272405466448 6.5991135034628075 13.789051540882566 0 0 0
1287 0 3 -0.834 6.783442342259336 25.277461109694357 14.548124999690929 0 -1 0
1288 0 4 0.417 7.497324318893568 24.831702602077502 15.02771995357326 0 -1 0
256 0 4 0.417 -0.9124849078736886 10.941523290131675 12.916523866608328 0 0 0
1305 0 3 -0.834 2.3842316140191704 10.23176264059959 12.672216582160205 0 0 0
1306 0 4 0.417 2.495540989306887 10.928017900833503 13.331769144218166 0 0 0
255 0 4 0.417 0.4557784309433926 10.313535120709627 12.718997481248962 0 0 0
254 0 3 -0.834 -0.45262304776387985 10.092954815006006 12.936913543618873 0 0 0
1348 0 4 0.417 -0.010935289097156077 8.984096465299354 14.195008587123047 0 0 0
1349 0 4 0.417 0.8891291095873115 8.850027137190724 15.401337359554432 0 0 0
1347 0 3 -0.834 0.29444041369827495 8.346681778020741 14.83663415146111 0 0 0
1267 0 4 0.417 5.498988118739576 9.619290064432082 14.962442276737647 0 0 0
1990 0 4 0.417 3.8608293636829023 11.589750193047292 14.661063671116361 0 0 0
1988 0 3 -0.834 3.0684738182389135 12.104852563629626 14.454032650922484 0 0 0
1861 0 4 0.417 4.750353792818911 20.269806229278093 23.09925951089404 0 0 0
1266 0 3 -0.834 5.22019029484936 10.445901538820896 14.564735160254308 0 0 0
1885 0 4 0.417 11.087795393516892 11.702970695713192 13.233366708265283 0 0 0
1251 0 3 -0.834 6.971351626504517 9.460038038726703 12.30493400594883 0 0 0
1257 0 3 -0.834 9.225660543232687 6.9682844640987405 13.272617254236389 0 0 0
107 0 3 -0.834 4.8239292629270505 7.824295983052775 12.277107165937274 0 0 0
1285 0 4 0.417 5.471427123427831 7.650241536872752 14.163971704115442 0 0 0
108 0 4 0.417 5.492298434185501 8.509470252551033 12.318161111603052 0 0 0
1259 0 4 0.417 9.156199762706107 7.881510830320873 13.571576358185112 0 0 0
1252 0 4 0.417 7.8237585060184545 9.770709997675414 12.604496390274042 0 0 0
1286 0 4 0.417 6.97370473702656 7.675150331602709 14.348984799872154 0 0 0
1284 0 3 -0.834 6.160711463724665 7.790092633951356 14.824759736779008 0 0 0
1270 0 4 0.417 8.864017710746259 9.939772246096789 15.155499568542398 0 0 0
1269 0 3 -0.834 9.237168248521886 9.663600051605874 14.315952057475515 0 0 0
1268 0 4 0.417 5.7882257443952385 10.554196196954821 13.792223321882558 0 0 0
1271 0 4 0.417 10.130017797813805 10.0151978050563 14.333984697226722 0 0 0
1234 0 4 0.417 10.534580447487253 7.133074430008826 12.03394098998936 0 0 0
754 0 3 -0.834 0.7046095542709677 14.786542168250785 12.210156113211447 0 0 0
1989 0 4 0.417 3.3598892955170006 13.018226512265151 14.531512008248953 0 0 0
2020 0 4 0.417 -0.5259693979734764 15.208576081327227 15.091079580458478 0 0 0
2019 0 4 0.417 0.28334664365641216 15.28819985070778 13.803932987020962 0 0 0
2018 0 3 -0.834 0.053936237050291345 15.784434288179392 14.60119147996195 0 0 0
1930 0 4 0.417 3.3779036938160347 17.3165336921539 14.641478673862752 0 0 0
1928 0 3 -0.834 2.4321116179680984 17.496875980984427 14.691154717435715 0 0 0
1825 0 4 0.417 4.6102770508788105 15.41969905294267 14.463140119450445 0 0 0
1823 0 3 -0.834 4.539516437270709 14.473940986550938 14.265152025382811 0 0 0
1845 0 4 0.417 3.800220324178808 17.29194218405728 11.942643846981346 0 0 0
1929 0 4 0.417 2.0370782957081923 16.66902574943628 14.95921473785212 0 0 0
1816 0 6 1 0.5756398830719904 18.388544020688283 13.017883911458831 0 0 0
1821 0 4 0.417 5.031788810790446 13.394981031334408 12.654187291670556 0 0 0
697 0 3 -0.834 8.015215888488957 13.970531001853338 12.040010306385456 0 0 0
1872 0 4 0.417 7.753990225814091 13.681897974734234 15.290638284174053 0 0 0
1824 0 4 0.417 5.393748820994185 14.114659521300215 14.546840487726104 0 0 0
720 0 4 0.417 7.289933174039591 18.18864344652774 12.887956098236486 0 0 0
1871 0 3 -0.834 6.999866577730423 13.480641424151917 14.730944834520066 0 0 0
718 0 3 -0.834 6.649899260704964 17.553982706714937 12.571252348936802 0 0 0
1882 0 4 0.417 10.706620248907466 15.181659808718075 12.913171980712379 0 0 0
1881 0 4 0.417 10.717431128945941 14.443414684948797 14.235476444056594 0 0 0
1880 0 3 -0.834 10.15027540080993 14.650304419243088 13.490467701431477 0 0 0
1873 0 4 0.417 7.3534739696942095 13.517287268462077 13.843852443030338 0 0 0
1849 0 4 0.417 5.1818703447291945 17.993480704989263 15.125433024572867 0 0 0
1848 0 4 0.417 5.65489153626378 17.207364137764127 13.908081106949794 0 0 0
1847 0 3 -0.834 5.059249483506144 17.154550327644692 14.665809768830892 0 0 0
1842 0 4 0.417 8.943877720797826 19.111628181461416 13.781786782751855 0 0 0
699 0 4 0.417 8.739357333848476 14.291290427255143 12.597438885331472 0 0 0
840 0 4 0.417 -1.2971751767163293 23.307996601605247 13.860643605544142 0 0 0
1889 0 3 -0.834 1.7894615402843694 23.28696658858625 12.114365177885801 0 0 0
691 0 3 -0.834 4.535907464093005 20.411350200576365 11.923111637284306 0 0 0
1890 0 4 0.417 2.228736421096912 23.90642941649722 12.713824269106507 0 0 0
839 0 4 0.417 -0.03196786985080662 23.32054200967537 13.019040306473858 0 0 0
838 0 3 -0.834 -0.7462478715654243 22.747332662910253 13.312432050758444 0 0 0
1404 0 3 -0.834 2.959688445180325 24.80684636330755 13.988942069658059 0 -1 0
1406 0 4 0.417 3.508869312895912 24.125330938051526 14.394204984817751 0 -1 0
1932 0 4 0.417 0.20256178421497345 21.576532013075905 14.195453335229528 0 0 0
1933 0 4 0.417 1.4165447376583034 21.10270774824794 14.976542695021916 0 0 0
1931 0 3 -0.834 0.5696439778048733 20.802128361270903 14.64221331794604 0 0 0
1851 0 4 0.417 4.871172061617733 21.865870288985644 14.942817291374157 0 0 0
1243 0 4 0.417 10.979818239075414 9.081282536198463 0.1266186812370549 0 0 1
1850 0 3 -0.834 4.702210813068708 22.795489657184994 14.754937611143953 0 0 0
1301 0 4 0.417 11.006601702469492 25.18493980830287 13.50808194427283 0 -1 0
1835 0 3 -0.834 6.637132361641482 22.187359160605997 12.280189735071703 0 0 0
1841 0 3 -0.834 8.210515224196595 19.677441507466995 14.026159959949329 0 0 0
1869 0 4 0.417 5.107907985939349 19.95185696112723 13.866633209977818 0 0 0
692 0 4 0.417 5.1631457554823506 21.11924817961574 12.081916065357381 0 0 0
1843 0 4 0.417 8.624903313335063 20.49407918829753 14.327131484971611 0 0 0
1836 0 4 0.417 7.554382843173624 21.97664848280332 12.497941444373122 0 0 0
1870 0 4 0.417 6.4841494317134565 19.83339912883102 14.534186934161802 0 0 0
1868 0 3 -0.834 5.540409663096633 19.9123349328226 14.727102327567579 0 0 0
1854 0 4 0.417 9.998598181999608 22.713141285868513 14.832755918553476 0 0 0
1853 0 3 -0.834 10.024856078127188 21.827479173709406 14.466648598913796 0 0 0
1852 0 4 0.417 5.462933018503144 23.075427030373465 14.236846277705412 0 0 0
1855 0 4 0.417 10.957141689592136 21.598260912081706 14.479306702046175 0 0 0
1818 0 4 0.417 10.921045815062417 19.70390992457086 12.071669632358192 0 0 0